/*--------------------------------*- C++ -*----------------------------------*\
| =========                 |                                                 |
| \\      /  F ield         | OpenFOAM: The Open Source CFD Toolbox           |
|  \\    /   O peration     | Version:  1.7.0                                 |
|   \\  /    A nd           | Web:      www.OpenFOAM.com                      |
|    \\/     M anipulation  |                                                 |
\*---------------------------------------------------------------------------*/
FoamFile
{
    version     2.0;
    format      ascii;
    class       volScalarField;
    location    "0.33";
    object      aC3H6O;
}
// * * * * * * * * * * * * * * * * * * * * * * * * * * * * * * * * * * * * * //

dimensions      [0 0 0 0 0 0 0];

internalField   nonuniform List<scalar> 
5460
(
0.0357013
0.0357597
0.035799
0.0358341
0.0358681
0.0359176
0.0359744
0.0360206
0.0360456
0.0360798
0.0361133
0.0361548
0.0362207
0.0362919
0.0363639
0.0363833
0.0363392
0.0363041
0.0362911
0.0362779
0.036287
0.0362986
0.0362937
0.0362974
0.0363021
0.0363088
0.0363274
0.0363684
0.0364191
0.0363798
0.0363791
0.0363936
0.0363775
0.0363396
0.0362534
0.0362304
0.0360106
0.0358861
0.0356283
0.0353119
0.0349583
0.0345834
0.0342509
0.033912
0.0332261
0.0325564
0.0319805
0.0313609
0.0306919
0.0301027
0.0294449
0.028824
0.0281993
0.0275807
0.0269851
0.0264119
0.0258174
0.0252705
0.0246433
0.0241635
0.0235473
0.0229648
0.0225865
0.0219704
0.0215398
0.0209296
0.0204601
0.0201586
0.0198856
0.0193079
0.0188975
0.0184215
0.0181449
0.0176962
0.0173743
0.0170695
0.0169697
0.0165062
0.016259
0.0160864
0.0157351
0.0154805
0.015076
0.0149283
0.014656
0.0143026
0.0141519
0.0138741
0.0136741
0.0134872
0.0133027
0.0130712
0.0128191
0.0125492
0.0123673
0.0122619
0.0119976
0.0118977
0.0116162
0.0115088
0.011295
0.0111093
0.011005
0.0108065
0.0106407
0.010556
0.0102892
0.0100667
0.0100328
0.00990824
0.00968161
0.00944854
0.00936537
0.0092491
0.00911133
0.00895375
0.00882619
0.00864607
0.00857191
0.00843991
0.00829352
0.00809914
0.00796224
0.00780466
0.00772159
0.00761335
0.00750874
0.00735978
0.0072041
0.00708056
0.0357011
0.0357373
0.0358066
0.0358555
0.0358874
0.0358996
0.0359189
0.0359578
0.0359973
0.0360334
0.0360807
0.0361222
0.0361768
0.0362512
0.0363227
0.0364375
0.0363732
0.0363195
0.0362877
0.0362693
0.0362802
0.0362979
0.0362924
0.0362763
0.0362766
0.0362812
0.0362983
0.0362994
0.0362999
0.0363005
0.0363037
0.0363038
0.0362186
0.0361258
0.0360286
0.0359069
0.0357455
0.0355492
0.0352924
0.0350056
0.0346881
0.0343102
0.0338759
0.0334371
0.0328755
0.0322784
0.0316921
0.0310736
0.0304658
0.0298757
0.0292373
0.0286021
0.0279574
0.0273509
0.0267417
0.0261451
0.0255707
0.0250449
0.024478
0.0239205
0.0233402
0.0228161
0.0223224
0.0217541
0.021301
0.0207567
0.0202933
0.0199217
0.0195524
0.0190796
0.0186912
0.0182489
0.0179104
0.0174913
0.017133
0.0168607
0.0166404
0.0162617
0.0159937
0.0157714
0.0154406
0.015174
0.0148419
0.0146061
0.0143311
0.0140462
0.0138616
0.013604
0.0133969
0.0131775
0.0129944
0.0127823
0.01253
0.0122864
0.0121117
0.0119694
0.0117379
0.0115882
0.0113569
0.0112285
0.0110187
0.0108525
0.0107331
0.0105648
0.0103952
0.0102756
0.0100514
0.00986148
0.00977108
0.0096457
0.00944232
0.00924802
0.00914099
0.00901259
0.00887512
0.00873347
0.00860262
0.00844661
0.00835805
0.00823472
0.00809004
0.00792706
0.00779041
0.00764451
0.0075526
0.00745724
0.00733914
0.00721006
0.00706461
0.00695164
0.0357007
0.0357264
0.035759
0.0357819
0.0358049
0.0358356
0.0358744
0.0359034
0.0359269
0.0359516
0.0359669
0.0359959
0.0360367
0.036091
0.0361515
0.0361977
0.0362086
0.0362259
0.036228
0.036216
0.0362159
0.0362392
0.0362742
0.0362537
0.0362337
0.0362159
0.036209
0.0361933
0.0361816
0.0361726
0.0361139
0.0360418
0.0359549
0.0358287
0.0356918
0.0355093
0.0352972
0.0350433
0.0347516
0.0344457
0.0341075
0.0337101
0.0332786
0.0328306
0.0323114
0.0317483
0.0311803
0.030594
0.0300149
0.0294327
0.0288142
0.0281889
0.0275708
0.0269704
0.0263826
0.0258023
0.0252522
0.0247315
0.0241905
0.0236231
0.0230691
0.0225666
0.0220605
0.0215291
0.0210602
0.0205583
0.0201059
0.0197076
0.0193071
0.0188694
0.0185019
0.0180847
0.0177119
0.017304
0.0169485
0.0166713
0.0164106
0.0160689
0.0157957
0.0155487
0.0152339
0.0149546
0.0146554
0.0143969
0.0141206
0.0138694
0.0136653
0.0134179
0.0131969
0.0129728
0.0127869
0.0125686
0.0123375
0.0121011
0.0119223
0.0117589
0.0115614
0.0113917
0.0111815
0.0110388
0.0108333
0.0106791
0.0105521
0.0103951
0.0102204
0.0100943
0.0098933
0.00971856
0.00960342
0.00947852
0.00928677
0.00911139
0.00899261
0.00886291
0.0087258
0.00858914
0.0084624
0.00832029
0.00822143
0.00810228
0.00796171
0.00781222
0.00767837
0.00754368
0.00744641
0.00735221
0.00723448
0.00710793
0.00697656
0.00686695
0.0357003
0.0357079
0.0357274
0.035745
0.0357685
0.0357856
0.0358102
0.0358329
0.0358529
0.0358759
0.0359011
0.035929
0.0359523
0.0359876
0.0360301
0.036067
0.0360961
0.0361146
0.0361191
0.0361257
0.0361359
0.0361562
0.0361958
0.0362088
0.036157
0.0361054
0.0360643
0.0360025
0.0359469
0.0358886
0.035786
0.0356542
0.0355071
0.0353178
0.0351066
0.0348743
0.034627
0.0343147
0.0339892
0.0336489
0.0332937
0.0328949
0.0324595
0.0320234
0.0315313
0.0310066
0.0304724
0.0299256
0.0293826
0.0288241
0.0282444
0.0276468
0.0270677
0.0264881
0.025929
0.0253786
0.0248573
0.0243597
0.0238353
0.0232717
0.0227478
0.0222556
0.0217713
0.0212618
0.0208032
0.0203176
0.0198792
0.019472
0.0190643
0.0186492
0.0182759
0.0178861
0.0174994
0.017106
0.0167705
0.0164818
0.0161931
0.0158832
0.0156069
0.0153419
0.0150391
0.0147576
0.0144771
0.0142143
0.0139442
0.0137189
0.0134957
0.0132558
0.0130281
0.012806
0.012616
0.0123989
0.0121771
0.0119559
0.0117715
0.0115972
0.0114147
0.0112329
0.0110393
0.0108847
0.0106915
0.0105384
0.01041
0.010256
0.0100851
0.00995219
0.00976849
0.00960031
0.0094713
0.00934073
0.00916479
0.00899907
0.00887558
0.00874355
0.00861015
0.00847829
0.00835065
0.00822039
0.008114
0.00799765
0.00786344
0.00772127
0.00759221
0.00746463
0.00736227
0.00726843
0.00715151
0.00703153
0.00690733
0.00680181
0.0357004
0.0357175
0.0357293
0.0357406
0.0357562
0.0357748
0.0357907
0.0358038
0.0358175
0.0358385
0.035855
0.0358736
0.0358964
0.0359245
0.0359505
0.0359831
0.0360101
0.036014
0.0360157
0.0360218
0.0360233
0.0360069
0.0359887
0.0359547
0.035901
0.0358305
0.0357485
0.03565
0.0355348
0.0353896
0.0352222
0.0350374
0.034796
0.0345364
0.0342648
0.0339791
0.0336731
0.0333387
0.0330041
0.0326419
0.0322801
0.0318656
0.0314459
0.0310271
0.0305869
0.0300932
0.029596
0.0290947
0.028597
0.028075
0.0275345
0.026988
0.0264468
0.0259085
0.0253804
0.0248676
0.0243741
0.0238953
0.0233969
0.0228575
0.0223655
0.0218846
0.0214242
0.0209397
0.0204841
0.0200308
0.0196056
0.019201
0.0187939
0.0184061
0.0180296
0.0176584
0.0172761
0.016901
0.0165765
0.0162834
0.0159868
0.0156919
0.0154201
0.0151437
0.0148519
0.0145791
0.0143123
0.0140424
0.0137773
0.0135635
0.0133329
0.0131001
0.0128689
0.0126485
0.0124557
0.0122464
0.0120319
0.0118192
0.011635
0.0114507
0.0112782
0.0110976
0.0109115
0.0107501
0.0105617
0.0104149
0.0102809
0.0101299
0.00996187
0.00982916
0.00965512
0.00949334
0.00935575
0.00922207
0.00906189
0.00889762
0.00877282
0.00863966
0.00851
0.00838054
0.00825687
0.00813236
0.00802263
0.00791065
0.00778054
0.00764135
0.00751507
0.00739552
0.00729083
0.00719702
0.0070811
0.00696451
0.0068469
0.00674382
0.0357003
0.0357147
0.0357234
0.0357433
0.035771
0.0358207
0.0358346
0.0358303
0.0358248
0.0358251
0.0358311
0.0358441
0.0358564
0.0358637
0.035871
0.0358804
0.0358911
0.0358928
0.0358787
0.0358556
0.0358247
0.0357727
0.0357061
0.0356151
0.035499
0.0353597
0.0352008
0.0350226
0.0348263
0.0346144
0.0343898
0.03413
0.0338096
0.0334884
0.0331733
0.0328463
0.0325072
0.0321624
0.0318166
0.0314513
0.0310806
0.0306852
0.0302926
0.0299047
0.029489
0.0290427
0.0285931
0.028133
0.0276741
0.0272045
0.0267194
0.0262244
0.0257285
0.0252399
0.0247481
0.0242699
0.0238147
0.0233635
0.0228848
0.0223853
0.0219162
0.0214616
0.0210235
0.0205687
0.0201307
0.0197049
0.0192948
0.0189033
0.0185075
0.0181327
0.0177634
0.0174053
0.0170328
0.016681
0.016365
0.0160703
0.0157752
0.0154935
0.0152245
0.0149423
0.0146625
0.0143982
0.0141416
0.0138709
0.013612
0.0134007
0.0131718
0.0129423
0.0127141
0.0124969
0.0123025
0.0121001
0.0118926
0.0116875
0.0114997
0.0113172
0.0111498
0.0109683
0.0107869
0.0106259
0.0104441
0.0103011
0.0101613
0.0100136
0.00984965
0.00971562
0.00954779
0.00938797
0.00924964
0.00911617
0.00896146
0.00880542
0.00867806
0.00854627
0.00842104
0.00829169
0.00816957
0.00805307
0.00794157
0.00783145
0.00770396
0.00756844
0.00744553
0.00733092
0.00722729
0.00713183
0.00701894
0.00690412
0.00679135
0.00669111
0.0357003
0.0357175
0.0357198
0.0357282
0.0357424
0.0357601
0.0357769
0.0357944
0.0358073
0.0358127
0.0358182
0.035827
0.0358271
0.0358099
0.0357868
0.0357616
0.0357285
0.0356823
0.0356268
0.0355508
0.0354552
0.0353269
0.0351622
0.0349835
0.034785
0.0345474
0.0342927
0.0340311
0.0337643
0.0334953
0.0331836
0.0328653
0.0325211
0.032173
0.0318362
0.031488
0.0311448
0.0308088
0.0304691
0.030129
0.0297667
0.0293984
0.0290295
0.0286653
0.0282886
0.0278958
0.0274934
0.0270832
0.0266723
0.0262468
0.0258182
0.0253787
0.0249241
0.0244858
0.024038
0.0235997
0.0231777
0.0227551
0.022313
0.0218561
0.0214179
0.0209952
0.0205789
0.0201582
0.019745
0.0193416
0.0189511
0.0185703
0.0181933
0.0178309
0.0174783
0.0171292
0.0167732
0.0164402
0.0161293
0.0158448
0.0155522
0.01528
0.0150131
0.014737
0.0144652
0.0142091
0.0139615
0.0136954
0.0134443
0.0132323
0.0130083
0.012783
0.0125619
0.0123493
0.0121541
0.011958
0.0117567
0.011557
0.0113661
0.0111871
0.0110248
0.0108442
0.010667
0.0105042
0.0103291
0.0101882
0.0100467
0.00990151
0.00974289
0.00960633
0.00944526
0.00928754
0.00914978
0.0090166
0.00886746
0.00871686
0.00858923
0.00846095
0.00833617
0.00820917
0.00808971
0.00797768
0.00786479
0.00775516
0.00763159
0.00750208
0.00738108
0.00727081
0.00716722
0.00707018
0.00696142
0.0068478
0.0067382
0.0066416
0.0357002
0.0357113
0.0357259
0.0357385
0.0357455
0.0357579
0.0357654
0.0357743
0.0357867
0.0357856
0.0357902
0.0358009
0.0357788
0.0356834
0.0355874
0.0354832
0.0353535
0.0352115
0.0350482
0.0348681
0.0346689
0.0344414
0.0341639
0.0338814
0.0335767
0.033261
0.0329446
0.0326265
0.0323095
0.0319896
0.0316551
0.0313118
0.0309637
0.0306265
0.0302998
0.0299619
0.0296332
0.0293159
0.0289968
0.0286712
0.0283436
0.0280101
0.0276776
0.0273542
0.0270222
0.0266698
0.0263202
0.0259607
0.0255931
0.0252173
0.0248449
0.0244497
0.0240483
0.0236577
0.0232617
0.0228637
0.0224824
0.0220917
0.0216922
0.0212772
0.0208757
0.0204854
0.0200929
0.0197097
0.0193235
0.0189417
0.0185717
0.0182112
0.0178539
0.0175098
0.0171692
0.0168326
0.0164954
0.0161787
0.0158799
0.0156055
0.0153185
0.0150508
0.014792
0.0145232
0.0142595
0.014012
0.0137719
0.0135113
0.0132692
0.0130595
0.012845
0.0126217
0.0124066
0.0121978
0.012006
0.0118113
0.0116173
0.0114252
0.011232
0.0110574
0.0108951
0.0107189
0.0105466
0.010385
0.0102153
0.0100766
0.00993419
0.00979034
0.00963821
0.00950389
0.00934413
0.00919084
0.00905521
0.00892132
0.00877611
0.00863137
0.00850493
0.00837834
0.00825416
0.00812958
0.00801446
0.0079052
0.00779211
0.00768228
0.00756246
0.00743844
0.00731916
0.00721167
0.00711013
0.00701265
0.0069058
0.00679552
0.00668817
0.00659335
0.0357
0.0357154
0.035724
0.0357278
0.0357294
0.035725
0.0357132
0.0356867
0.0356414
0.0355823
0.0355084
0.0354141
0.0352842
0.0351223
0.0349234
0.0346844
0.0344206
0.0341393
0.0338427
0.0335338
0.0332167
0.0328806
0.0325342
0.0321869
0.0318415
0.0314871
0.0311457
0.030813
0.0304973
0.0301676
0.029839
0.0295143
0.0291928
0.0288907
0.0285867
0.0282864
0.0279993
0.0277136
0.0274253
0.0271285
0.0268404
0.0265587
0.0262669
0.0259806
0.0256951
0.0253917
0.0250933
0.0247919
0.0244706
0.0241423
0.0238203
0.023475
0.0231254
0.0227807
0.0224302
0.0220784
0.0217368
0.0213872
0.0210316
0.0206592
0.0202908
0.0199305
0.0195671
0.0192166
0.0188614
0.0185097
0.0181652
0.0178206
0.0174885
0.0171602
0.0168403
0.0165202
0.0162009
0.0159006
0.015614
0.0153488
0.0150728
0.0148106
0.0145561
0.0142984
0.01405
0.0138083
0.0135736
0.013321
0.0130856
0.0128801
0.0126701
0.0124524
0.0122449
0.0120429
0.0118574
0.0116661
0.0114764
0.0112919
0.0110991
0.0109251
0.0107625
0.010593
0.0104254
0.0102654
0.0101012
0.0099652
0.00982189
0.0096808
0.00953422
0.00939944
0.00924568
0.00909509
0.00896036
0.00882793
0.00868769
0.00854764
0.00842062
0.00829732
0.00817406
0.00805284
0.00794014
0.00783235
0.00772126
0.00761218
0.00749513
0.00737545
0.00725843
0.00715416
0.00705398
0.00695599
0.00685117
0.00674391
0.00663864
0.00654632
0.0356968
0.0357057
0.0357012
0.0356728
0.0356223
0.035552
0.0354428
0.0353044
0.0351164
0.0348915
0.034634
0.0343424
0.0340183
0.0336699
0.0332992
0.0329168
0.0325292
0.0321425
0.0317623
0.0313836
0.0310141
0.0306564
0.0303022
0.0299558
0.0296198
0.0292896
0.0289727
0.028667
0.0283967
0.0281038
0.0278145
0.0275343
0.0272599
0.0270007
0.0267468
0.0265022
0.0262658
0.026021
0.0257754
0.0255292
0.0252901
0.0250546
0.0248129
0.0245712
0.0243326
0.0240823
0.0238323
0.0235767
0.0233074
0.023033
0.0227547
0.0224671
0.0221694
0.0218688
0.0215646
0.021258
0.0209581
0.0206507
0.0203348
0.0200091
0.0196743
0.0193439
0.0190135
0.0186951
0.0183732
0.0180449
0.0177258
0.0174063
0.0170947
0.0167908
0.0164917
0.0161894
0.0158887
0.015604
0.0153303
0.0150743
0.0148143
0.0145612
0.0143106
0.0140655
0.0138283
0.0135976
0.0133676
0.0131238
0.0128969
0.0126964
0.0124932
0.0122797
0.0120787
0.0118846
0.0117027
0.0115153
0.0113322
0.0111511
0.0109617
0.0107911
0.0106299
0.0104661
0.0103003
0.0101445
0.00998684
0.00985203
0.00970923
0.00957158
0.00942961
0.00929572
0.00914636
0.00899973
0.00886656
0.00873528
0.00860036
0.00846363
0.00833787
0.00821722
0.00809531
0.00797748
0.00786762
0.00776086
0.00765122
0.00754407
0.00742849
0.0073132
0.0071984
0.00709602
0.00699754
0.00690054
0.00679794
0.00669266
0.0065897
0.00649862
0.0356538
0.0355772
0.0354288
0.0352069
0.0349217
0.0345714
0.034154
0.0336872
0.0331887
0.0326784
0.03217
0.0316811
0.0312036
0.0307502
0.0303207
0.0299128
0.0295261
0.029159
0.0288174
0.0284899
0.028164
0.0278618
0.0275738
0.0272947
0.0270308
0.0267764
0.0265263
0.0262922
0.0260752
0.0258573
0.0256484
0.0254313
0.0252234
0.0250276
0.0248301
0.024643
0.0244676
0.0242825
0.0240856
0.0238895
0.0237058
0.0235194
0.02333
0.0231424
0.0229496
0.0227517
0.0225501
0.0223411
0.0221211
0.0218988
0.0216703
0.0214318
0.021183
0.0209291
0.020674
0.0204121
0.020153
0.0198884
0.0196115
0.0193229
0.0190278
0.0187307
0.018435
0.0181507
0.0178566
0.0175583
0.0172676
0.016974
0.0166822
0.0164018
0.0161241
0.0158412
0.0155602
0.0152886
0.0150301
0.0147879
0.0145425
0.0142974
0.014056
0.013823
0.0135956
0.0133734
0.0131528
0.0129197
0.012701
0.012507
0.0123079
0.0121023
0.0119074
0.0117192
0.0115427
0.0113607
0.0111843
0.0110048
0.0108221
0.0106552
0.0104948
0.0103362
0.0101749
0.0100233
0.00987082
0.00973721
0.00959661
0.00946278
0.00932506
0.00919155
0.00904708
0.00890284
0.00877122
0.00864318
0.00851333
0.00837878
0.00825465
0.00813653
0.00801674
0.00790167
0.0077951
0.00768954
0.00758127
0.00747585
0.0073629
0.00725085
0.00713898
0.00703851
0.00694136
0.00684448
0.00674451
0.00664124
0.00654105
0.00645097
0.0348033
0.0338476
0.0327947
0.0317818
0.030834
0.0299894
0.0292421
0.0286002
0.0280635
0.0276156
0.0272282
0.0268881
0.0265975
0.0263351
0.0260888
0.0258459
0.0256194
0.0254151
0.0252296
0.0250438
0.0248649
0.0246949
0.0245271
0.0243712
0.0242129
0.0240577
0.0239091
0.02377
0.0236397
0.0235084
0.0233793
0.0232512
0.023121
0.0229917
0.022866
0.0227495
0.0226388
0.0225071
0.0223724
0.0222346
0.022105
0.0219742
0.0218393
0.0217021
0.0215584
0.0214074
0.0212556
0.021097
0.0209238
0.0207509
0.0205715
0.0203817
0.0201811
0.0199781
0.019766
0.0195477
0.0193278
0.0191002
0.0188656
0.0186176
0.0183565
0.0180969
0.0178354
0.0175828
0.0173218
0.0170525
0.016789
0.0165221
0.0162552
0.0159974
0.0157391
0.0154797
0.0152178
0.0149622
0.0147191
0.0144893
0.0142587
0.0140237
0.0137942
0.0135727
0.0133527
0.0131408
0.0129292
0.0127045
0.012497
0.0123114
0.0121177
0.0119201
0.0117306
0.0115495
0.0113759
0.0112038
0.0110321
0.0108565
0.0106791
0.0105175
0.0103584
0.0102031
0.0100483
0.00990054
0.00975377
0.00962046
0.00948397
0.00935334
0.009218
0.00908664
0.00894675
0.00880522
0.00867583
0.00855173
0.00842468
0.00829359
0.00817064
0.00805613
0.00793835
0.00782544
0.00772145
0.00761812
0.00751086
0.00740772
0.00729752
0.00718837
0.00707941
0.00698012
0.0068847
0.00678903
0.00669152
0.00659062
0.00649191
0.00640351
0.00671842
0.0101923
0.0127849
0.0149062
0.016549
0.01778
0.0186614
0.0192773
0.0197234
0.0200688
0.020316
0.0205198
0.0206847
0.0208182
0.0209353
0.0210095
0.0210625
0.0211035
0.0211387
0.0211748
0.0211887
0.0211895
0.0211817
0.0211667
0.0211478
0.0211224
0.0210955
0.0210679
0.0210405
0.0210082
0.0209738
0.0209383
0.0209005
0.0208568
0.0208007
0.020756
0.0207087
0.0206448
0.020573
0.0205018
0.0204353
0.0203576
0.0202813
0.0201997
0.0201118
0.020009
0.0199055
0.0197957
0.0196722
0.019548
0.0194176
0.0192771
0.0191277
0.0189725
0.0188086
0.0186327
0.0184508
0.0182628
0.0180667
0.017862
0.0176397
0.0174149
0.0171914
0.0169679
0.0167403
0.0165057
0.0162707
0.0160302
0.0157907
0.0155553
0.0153189
0.0150841
0.014844
0.0146058
0.0143811
0.014163
0.0139449
0.0137253
0.01351
0.0133002
0.0130907
0.0128899
0.0126852
0.0124742
0.0122778
0.0121002
0.0119127
0.0117261
0.0115422
0.0113667
0.0111975
0.0110321
0.0108678
0.0106981
0.0105276
0.0103699
0.010215
0.010063
0.00991398
0.00977009
0.00962959
0.00949756
0.0093658
0.009236
0.00910517
0.0089754
0.00884039
0.00870305
0.00857585
0.008454
0.00833098
0.0082037
0.00808316
0.00797087
0.00785586
0.00774578
0.00764355
0.00754314
0.00743704
0.0073357
0.00722904
0.0071231
0.00701663
0.00691871
0.00682591
0.00673121
0.00663632
0.00653711
0.00644058
0.00635373
0.000954654
0.0015821
0.00270302
0.00401586
0.00542747
0.00684618
0.00816922
0.00942754
0.0106111
0.0116655
0.0125882
0.013386
0.0140727
0.0146568
0.0151747
0.0156132
0.0159839
0.0163135
0.0166169
0.0169017
0.0171323
0.017332
0.0175089
0.0176632
0.0177967
0.0179202
0.018027
0.0181269
0.0182156
0.0182963
0.01837
0.0184326
0.0184837
0.0185271
0.0185644
0.0185955
0.0186183
0.0186308
0.0186306
0.0186302
0.0186275
0.0186105
0.0185943
0.0185709
0.0185351
0.0184945
0.0184403
0.0183823
0.0183129
0.0182406
0.0181612
0.0180696
0.0179725
0.0178682
0.0177521
0.0176225
0.0174851
0.0173413
0.0171847
0.0170214
0.0168406
0.0166555
0.0164701
0.0162833
0.0160903
0.0158929
0.0156866
0.0154784
0.0152654
0.0150557
0.0148452
0.0146338
0.0144173
0.0142003
0.0139947
0.0137922
0.0135909
0.013387
0.013187
0.0129915
0.0127944
0.0126036
0.0124123
0.012217
0.0120303
0.0118603
0.0116834
0.0115096
0.0113303
0.0111619
0.0109977
0.0108393
0.010684
0.0105202
0.0103588
0.0102044
0.0100542
0.0099067
0.00976443
0.00962545
0.00949021
0.00936125
0.0092351
0.00910609
0.00898
0.00885411
0.00872206
0.00859054
0.00846549
0.00834609
0.00822742
0.00810546
0.00798719
0.00787676
0.00776545
0.00765804
0.00755771
0.00746003
0.00735601
0.00725688
0.00715382
0.00705116
0.00694765
0.00685085
0.00676049
0.00666785
0.00657555
0.00647887
0.00638355
0.00629874
0.000304037
0.000419341
0.000656674
0.000685595
0.000938047
0.0014171
0.00209443
0.00292697
0.00386827
0.00486983
0.00586607
0.00681441
0.00771089
0.00854459
0.00931415
0.0100314
0.0106976
0.0113081
0.0118632
0.0123762
0.0128295
0.0132424
0.0136137
0.0139406
0.0142393
0.0145121
0.0147605
0.0149919
0.0152069
0.0154042
0.0155857
0.0157516
0.0158993
0.0160358
0.0161629
0.0162759
0.0163799
0.0164698
0.0165482
0.0166182
0.0166823
0.0167311
0.0167775
0.0168135
0.0168439
0.0168609
0.0168605
0.0168556
0.0168431
0.0168266
0.0167993
0.0167585
0.0167129
0.0166596
0.0165937
0.0165134
0.0164231
0.0163238
0.016211
0.0160893
0.0159537
0.0158106
0.0156665
0.015518
0.0153649
0.0152052
0.0150309
0.0148547
0.0146729
0.014493
0.0143105
0.0141259
0.0139332
0.0137406
0.0135558
0.0133714
0.0131894
0.0130047
0.0128198
0.0126383
0.012458
0.01228
0.012103
0.0119254
0.0117506
0.0115888
0.011426
0.0112632
0.0110925
0.0109301
0.0107745
0.0106237
0.0104745
0.0103202
0.0101687
0.0100186
0.00987335
0.00973284
0.00959635
0.00946451
0.00933401
0.00920879
0.00908793
0.00896264
0.00884096
0.00871759
0.00859153
0.0084647
0.00834332
0.00822655
0.00811269
0.00799551
0.00788105
0.00777222
0.00766429
0.00756006
0.00746228
0.00736695
0.00726573
0.00716884
0.00706984
0.00697096
0.00687083
0.00677599
0.0066871
0.00659791
0.00650766
0.00641321
0.00632036
0.00623747
0.000215995
0.000257687
0.000256919
0.000219263
0.0001942
0.000204097
0.000262818
0.000397889
0.000646876
0.00103693
0.00156441
0.00220437
0.00292181
0.00368081
0.00445037
0.00521194
0.00595773
0.00666837
0.00733624
0.00796787
0.00856653
0.00911845
0.00963142
0.0101105
0.0105598
0.0109828
0.0113732
0.0117319
0.0120689
0.0123812
0.0126708
0.0129374
0.0131873
0.0134174
0.0136344
0.0138346
0.0140156
0.0141837
0.0143393
0.0144796
0.0146151
0.0147338
0.0148486
0.0149457
0.0150391
0.015111
0.0151693
0.0152213
0.0152658
0.0153057
0.0153333
0.0153445
0.0153503
0.0153469
0.0153332
0.0153052
0.0152622
0.0152101
0.0151459
0.0150653
0.0149755
0.0148758
0.0147744
0.0146701
0.0145565
0.0144365
0.0142995
0.0141554
0.0140075
0.0138577
0.0137087
0.0135522
0.0133876
0.0132209
0.013058
0.0128943
0.0127382
0.0125715
0.0124035
0.0122394
0.012076
0.0119151
0.0117541
0.0115931
0.0114335
0.011281
0.0111332
0.0109798
0.0108234
0.0106699
0.0105234
0.0103811
0.0102383
0.010095
0.00995396
0.009811
0.00967203
0.00953736
0.00940726
0.00928337
0.0091592
0.00903881
0.00892205
0.00880213
0.0086858
0.00856478
0.00844605
0.00832372
0.00820681
0.00809423
0.00798442
0.00787189
0.00776218
0.00765639
0.00755188
0.00745055
0.00735526
0.00726293
0.0071655
0.00707139
0.00697648
0.00688066
0.00678469
0.00669223
0.00660554
0.00652015
0.00643207
0.00634058
0.00625021
0.00616881
0.000214771
0.000127822
8.80536e-05
7.14693e-05
6.16197e-05
5.35213e-05
4.66101e-05
4.27953e-05
4.71757e-05
7.06624e-05
0.000132533
0.000259254
0.000476772
0.000799842
0.00122537
0.0017364
0.00231008
0.00292096
0.00354939
0.00418131
0.00480886
0.00540595
0.00596687
0.00651259
0.00703789
0.00754289
0.00801955
0.00847015
0.00889524
0.00930789
0.00969457
0.0100548
0.0103975
0.0107135
0.0110143
0.0112996
0.0115599
0.011805
0.0120371
0.0122476
0.0124504
0.0126394
0.0128138
0.0129755
0.0131261
0.0132601
0.0133794
0.01349
0.0135908
0.0136828
0.0137642
0.013831
0.0138899
0.0139376
0.0139771
0.013998
0.0140043
0.0140006
0.0139834
0.0139521
0.0139088
0.0138549
0.0137987
0.0137352
0.0136626
0.0135817
0.0134846
0.0133773
0.0132657
0.0131489
0.0130323
0.0129094
0.0127753
0.0126359
0.0124959
0.0123577
0.0122235
0.0120808
0.0119342
0.0117914
0.0116468
0.0115032
0.0113593
0.0112186
0.0110744
0.0109348
0.0108016
0.0106626
0.0105188
0.0103763
0.0102406
0.0101069
0.00997343
0.00984002
0.00970938
0.00957642
0.00944559
0.00931796
0.00919588
0.00907707
0.00895991
0.00884808
0.00873693
0.0086221
0.00851206
0.00839505
0.00828276
0.00816549
0.00805308
0.00794572
0.0078404
0.00773281
0.0076288
0.00752667
0.00742639
0.00732974
0.00723618
0.007146
0.00705364
0.00696336
0.00687213
0.00678024
0.00668815
0.00659942
0.00651536
0.0064332
0.00634801
0.00626013
0.00617178
0.00609192
1.37453e-06
1.99927e-06
2.52127e-06
2.96449e-06
3.22565e-06
3.25782e-06
3.0979e-06
2.84685e-06
2.65982e-06
2.80335e-06
3.87825e-06
7.47597e-06
1.77019e-05
4.35379e-05
0.000100473
0.000208977
0.00038888
0.000652084
0.000998028
0.0014146
0.001883
0.00238137
0.00289621
0.00341833
0.00393946
0.00445366
0.00495603
0.00544317
0.00591443
0.00637039
0.0068099
0.00722371
0.00762153
0.00800188
0.00836638
0.00871646
0.00905282
0.00936886
0.00966488
0.00994701
0.0102151
0.0104673
0.0107036
0.0109284
0.0111356
0.0113286
0.011509
0.0116764
0.0118312
0.0119758
0.0121103
0.0122322
0.0123409
0.0124402
0.012528
0.0125983
0.0126557
0.0126993
0.0127311
0.0127482
0.0127542
0.012748
0.0127351
0.0127143
0.0126844
0.0126419
0.0125879
0.0125191
0.0124442
0.0123658
0.0122819
0.0121923
0.0120891
0.0119813
0.0118712
0.0117592
0.0116486
0.0115315
0.0114096
0.0112873
0.0111635
0.0110398
0.010919
0.0107947
0.0106705
0.0105475
0.0104257
0.0103025
0.0101744
0.0100449
0.00992029
0.00979911
0.00967524
0.00955325
0.00943442
0.00931268
0.0091908
0.00907243
0.00895827
0.00884641
0.00873637
0.00863216
0.00852847
0.00842024
0.00831495
0.00820634
0.008099
0.00798907
0.00788143
0.00777914
0.00767921
0.00757775
0.00747914
0.0073812
0.00728639
0.0071941
0.00710344
0.00701622
0.00692941
0.00684275
0.00675578
0.00666852
0.00658013
0.00649532
0.00641417
0.00633588
0.00625363
0.00616934
0.00608394
0.00600652
9.29737e-09
2.45634e-08
4.4882e-08
6.71275e-08
8.68833e-08
1.00774e-07
1.07833e-07
1.09318e-07
1.08005e-07
1.08376e-07
1.19336e-07
1.63364e-07
3.02489e-07
7.0915e-07
1.86972e-06
5.15176e-06
1.40501e-05
3.60152e-05
8.36323e-05
0.000173264
0.000320554
0.000534788
0.000815885
0.00115559
0.0015411
0.00195876
0.00239622
0.00284352
0.00329345
0.00374112
0.00418241
0.00461389
0.00503504
0.00544477
0.00584209
0.00622758
0.00660179
0.00695777
0.00730045
0.0076302
0.00795053
0.00825545
0.0085484
0.00883061
0.00909515
0.0093425
0.00957685
0.00979783
0.0100055
0.0102
0.0103839
0.0105571
0.0107164
0.0108647
0.0109992
0.0111183
0.0112242
0.0113158
0.0113939
0.0114613
0.0115152
0.0115559
0.0115899
0.0116123
0.011622
0.0116204
0.0116072
0.0115799
0.0115452
0.0115047
0.0114545
0.0113974
0.0113307
0.0112551
0.0111772
0.0110944
0.0110085
0.0109183
0.010824
0.0107252
0.0106251
0.0105244
0.0104232
0.0103199
0.0102153
0.0101112
0.0100051
0.00989785
0.0097862
0.00967197
0.00956085
0.00945233
0.00934129
0.00923115
0.00912214
0.00901513
0.00890542
0.00879741
0.00869111
0.00858724
0.00848609
0.0083894
0.00829415
0.00819439
0.00809559
0.00799462
0.00789324
0.00779049
0.00769023
0.0075935
0.00749903
0.00740339
0.00731091
0.00721889
0.00712962
0.00704113
0.00695534
0.0068719
0.00678953
0.00670775
0.00662427
0.00654302
0.00645894
0.00637828
0.0063014
0.00622633
0.006148
0.00606677
0.00598552
0.00591033
6.43468e-11
2.43431e-10
5.62318e-10
9.98767e-10
1.48931e-09
1.96266e-09
2.37089e-09
2.69893e-09
2.95984e-09
3.19594e-09
3.50843e-09
4.15965e-09
5.86999e-09
1.06517e-08
2.42462e-08
6.33929e-08
1.7641e-07
5.01322e-07
1.4377e-06
4.11717e-06
1.13957e-05
2.9238e-05
6.76024e-05
0.000139589
0.000258284
0.000432401
0.00066326
0.00094512
0.00126803
0.00162115
0.00199446
0.00237987
0.00277142
0.00316458
0.0035558
0.00394283
0.00432363
0.00469619
0.00505994
0.00541449
0.00576126
0.00609447
0.00641842
0.00673263
0.00703574
0.00732812
0.00761093
0.00788029
0.00813517
0.00837662
0.00860551
0.00882422
0.00903065
0.0092247
0.0094062
0.00957135
0.00972169
0.00986081
0.00998503
0.0101013
0.0102009
0.0102864
0.0103645
0.0104284
0.0104807
0.0105192
0.0105451
0.0105604
0.0105651
0.0105616
0.0105525
0.0105285
0.0104967
0.0104577
0.0104111
0.0103579
0.0103031
0.0102401
0.0101715
0.0101009
0.0100269
0.00994876
0.0098692
0.00978865
0.00970701
0.00962095
0.00953397
0.00944399
0.00934975
0.00925255
0.00915779
0.00906321
0.00896634
0.00886976
0.00877385
0.00868078
0.00858361
0.0084869
0.00839063
0.00829748
0.00820675
0.00811747
0.00803048
0.00793949
0.00784871
0.00775661
0.00766326
0.00756818
0.00747472
0.00738453
0.00729665
0.00720828
0.00712199
0.00703623
0.00695328
0.00687052
0.00678958
0.00671048
0.00663331
0.00655567
0.00647718
0.00640136
0.00632282
0.00624698
0.00617369
0.00610239
0.0060286
0.00595133
0.00587521
0.00580237
3.98157e-13
1.89098e-12
5.16402e-12
1.0539e-11
1.78446e-11
2.65989e-11
3.62928e-11
4.65611e-11
5.72475e-11
6.85233e-11
8.12682e-11
9.81218e-11
1.26337e-10
1.8595e-10
3.34184e-10
7.38355e-10
1.88784e-09
5.20505e-09
1.48822e-08
4.33838e-08
1.26984e-07
3.69957e-07
1.07659e-06
3.11228e-06
8.66591e-06
2.23438e-05
5.19747e-05
0.000108156
0.000201999
0.000341774
0.000530169
0.000763953
0.00103586
0.00133715
0.00165931
0.00199529
0.0023396
0.00268812
0.00303777
0.0033861
0.00373132
0.00407123
0.00440554
0.00473348
0.00505441
0.00536765
0.00567382
0.00597022
0.00625611
0.00653181
0.00679923
0.00705793
0.00730646
0.00754233
0.00776332
0.00797072
0.00816516
0.00834788
0.00851538
0.00867202
0.0088163
0.00894824
0.00906684
0.00917125
0.00926279
0.00934085
0.00940695
0.00946354
0.00951006
0.00954602
0.00957105
0.00958513
0.00959072
0.00958784
0.00957518
0.00955316
0.00952867
0.00949437
0.0094561
0.00941167
0.00936627
0.00931328
0.00925855
0.00919967
0.00913872
0.0090766
0.00900973
0.0089384
0.00886392
0.00878563
0.00870852
0.00862818
0.0085466
0.00846377
0.00838474
0.00830543
0.00822281
0.00813752
0.00805523
0.00797281
0.00789378
0.00781343
0.00773484
0.00765345
0.00757242
0.00748906
0.00740471
0.0073186
0.00723385
0.0071499
0.00706997
0.00698907
0.00691091
0.00683092
0.00675493
0.00667879
0.00660397
0.00653016
0.00645822
0.00638532
0.00631271
0.00624249
0.0061705
0.00609945
0.00602992
0.00596333
0.00589341
0.00582138
0.00575056
0.005681
2.048e-15
1.14338e-14
3.5792e-14
8.2837e-14
1.58549e-13
2.6697e-13
4.11032e-13
5.93474e-13
8.17993e-13
1.09165e-12
1.42971e-12
1.86576e-12
2.47278e-12
3.42805e-12
5.21541e-12
9.24889e-12
1.9734e-11
4.91234e-11
1.34504e-10
3.87084e-10
1.13594e-09
3.34473e-09
9.87701e-09
2.92954e-08
8.66114e-08
2.54116e-07
7.44551e-07
2.16988e-06
6.10466e-06
1.59489e-05
3.76917e-05
7.98459e-05
0.000152001
0.000262218
0.000414439
0.000607546
0.000836429
0.00109407
0.00137334
0.00166783
0.00197241
0.0022832
0.00259741
0.00291277
0.00322746
0.00354006
0.00384923
0.00415385
0.00445501
0.00474449
0.00502891
0.00530773
0.00557993
0.0058418
0.00609678
0.00634297
0.00657475
0.0067954
0.00700137
0.00719636
0.00737955
0.00755171
0.00770875
0.00785455
0.00798331
0.00809996
0.00820579
0.00830102
0.00838605
0.00846
0.00852113
0.00857245
0.00861332
0.00864596
0.00866658
0.00867847
0.00868464
0.00868413
0.00867498
0.00865933
0.00864045
0.00861528
0.00858468
0.00855079
0.0085138
0.00847546
0.00842882
0.00837914
0.00832509
0.00826749