/*--------------------------------*- C++ -*----------------------------------*\
| =========                 |                                                 |
| \\      /  F ield         | OpenFOAM: The Open Source CFD Toolbox           |
|  \\    /   O peration     | Version:  1.7.0                                 |
|   \\  /    A nd           | Web:      www.OpenFOAM.com                      |
|    \\/     M anipulation  |                                                 |
\*---------------------------------------------------------------------------*/
FoamFile
{
    version     2.0;
    format      ascii;
    class       volScalarField;
    location    "0.33";
    object      alphat;
}
// * * * * * * * * * * * * * * * * * * * * * * * * * * * * * * * * * * * * * //

dimensions      [1 -1 -1 0 0 0 0];

internalField   nonuniform List<scalar> 
5460
(
0.00104247
0.00104232
0.0010423
0.00104228
0.00104231
0.00104237
0.00104251
0.00104272
0.001043
0.00104342
0.00104399
0.00104454
0.00104524
0.00104611
0.00104705
0.00104815
0.00104941
0.0010509
0.00105267
0.00105475
0.00105717
0.0010601
0.00106318
0.00106713
0.00107227
0.00107889
0.00108738
0.00109815
0.00111167
0.00112889
0.00115071
0.00117869
0.00121442
0.00125902
0.00131537
0.00138561
0.00147149
0.0015742
0.00169413
0.00183029
0.00198081
0.0021429
0.00231328
0.00248868
0.00266565
0.00284018
0.00300962
0.00317428
0.00333268
0.0034816
0.00362292
0.00375674
0.00388347
0.00400183
0.00411127
0.00421488
0.00430937
0.00439834
0.00448036
0.00455811
0.00462923
0.00469126
0.00474608
0.00479785
0.00484536
0.00488922
0.00493128
0.00496926
0.00500192
0.00502948
0.00505677
0.00508028
0.0050985
0.00511485
0.00512932
0.00514292
0.0051532
0.00516128
0.00516876
0.00517442
0.00517693
0.00517985
0.00517762
0.00517728
0.00517196
0.00517006
0.00516318
0.00515646
0.00514897
0.00513863
0.00513146
0.00512136
0.00510769
0.00509865
0.00508507
0.00507162
0.00505693
0.00504128
0.00502687
0.0050099
0.00499272
0.00497545
0.00495852
0.00494126
0.00492403
0.00490419
0.00488193
0.00486179
0.00483949
0.00481695
0.00479255
0.00476682
0.00473992
0.00470958
0.00467874
0.00464337
0.0046055
0.004564
0.00452362
0.00447969
0.00443538
0.00439047
0.00434556
0.00430279
0.00426218
0.00422624
0.0041937
0.00416682
0.00414824
0.00414025
0.00102796
0.00102804
0.00102821
0.00102839
0.00102862
0.00102896
0.0010293
0.00102972
0.0010302
0.00103078
0.00103148
0.00103213
0.00103294
0.00103385
0.0010349
0.00103611
0.00103751
0.00103907
0.00104096
0.00104326
0.0010459
0.00104867
0.00105225
0.00105663
0.00106225
0.00106936
0.00107851
0.00109011
0.00110482
0.00112361
0.0011477
0.00117851
0.00121781
0.00126738
0.00132929
0.00140542
0.00149711
0.00160487
0.00172849
0.00186651
0.00201727
0.00217826
0.00234642
0.00251891
0.00269278
0.00286395
0.00303113
0.00319312
0.00334838
0.003496
0.0036359
0.00376839
0.00389347
0.00401005
0.00411898
0.00422107
0.00431537
0.00440331
0.0044845
0.00455994
0.00462939
0.00469173
0.00474755
0.00479908
0.00484681
0.0048905
0.00493132
0.0049684
0.00500017
0.00502838
0.00505453
0.00507724
0.005096
0.00511272
0.0051271
0.00514029
0.00515017
0.00515821
0.00516515
0.00517007
0.00517321
0.00517494
0.00517396
0.0051725
0.00516859
0.00516547
0.00515927
0.00515228
0.00514475
0.00513494
0.00512661
0.00511615
0.00510375
0.00509327
0.00508028
0.00506723
0.00505243
0.00503688
0.00502229
0.00500544
0.00498863
0.00497143
0.0049543
0.00493672
0.00491906
0.00489953
0.00487821
0.00485768
0.0048356
0.00481341
0.00478875
0.00476313
0.00473589
0.00470595
0.0046745
0.00463951
0.00460197
0.00456128
0.00452035
0.00447657
0.00443238
0.00438747
0.00434296
0.00430007
0.00425968
0.00422354
0.00419107
0.00416458
0.00414596
0.00413821
0.0010024
0.00100262
0.00100291
0.0010033
0.00100375
0.00100424
0.00100477
0.00100539
0.00100606
0.00100679
0.00100759
0.00100846
0.00100944
0.00101053
0.00101175
0.0010131
0.00101466
0.00101646
0.00101853
0.00102104
0.00102405
0.00102769
0.0010322
0.00103784
0.00104499
0.00105414
0.00106589
0.001081
0.00110055
0.00112574
0.00115802
0.00119882
0.00124987
0.00131246
0.00138778
0.00147658
0.00157911
0.00169465
0.00182268
0.00196174
0.00211014
0.00226625
0.00242783
0.00259266
0.00275826
0.00292204
0.00308233
0.00323794
0.00338766
0.00353062
0.00366653
0.00379542
0.00391722
0.00403079
0.00413737
0.00423695
0.00432971
0.0044158
0.00449566
0.00456914
0.00463681
0.00469835
0.00475389
0.00480487
0.00485188
0.00489506
0.00493495
0.00497088
0.00500231
0.00503038
0.00505573
0.00507783
0.00509653
0.00511306
0.00512724
0.00513981
0.00514934
0.00515735
0.00516382
0.00516848
0.00517164
0.00517266
0.00517209
0.00516996
0.00516663
0.00516277
0.0051568
0.00514967
0.00514192
0.0051325
0.00512372
0.00511308
0.0051011
0.00509005
0.00507719
0.00506398
0.00504936
0.00503404
0.00501912
0.00500242
0.00498581
0.00496862
0.0049513
0.00493369
0.0049156
0.00489627
0.00487551
0.00485469
0.0048329
0.00481074
0.00478601
0.00476045
0.00473308
0.00470327
0.0046715
0.00463671
0.00459932
0.004559
0.00451772
0.00447417
0.00442995
0.00438514
0.00434069
0.00429782
0.00425756
0.00422126
0.00418896
0.0041627
0.00414418
0.00413654
0.000969408
0.000969907
0.000970519
0.000971232
0.000971936
0.000972662
0.000973456
0.0009743
0.000975218
0.000976171
0.000977191
0.000978257
0.000979424
0.000980684
0.000982108
0.00098376
0.000985666
0.000987887
0.000990598
0.000993945
0.000998163
0.00100354
0.00101047
0.0010191
0.00103039
0.00104491
0.00106373
0.00108813
0.00111938
0.00115868
0.00120718
0.0012658
0.00133527
0.00141584
0.00150719
0.00160922
0.0017214
0.00184279
0.00197243
0.00210922
0.00225215
0.00240006
0.00255154
0.00270513
0.00285913
0.00301169
0.00316172
0.00330768
0.00344892
0.00358434
0.00371376
0.00383686
0.00395346
0.00406292
0.00416588
0.00426209
0.00435183
0.00443525
0.00451268
0.0045842
0.0046499
0.00470985
0.00476444
0.00481439
0.00486047
0.00490256
0.0049412
0.00497632
0.0050069
0.00503442
0.00505906
0.00508049
0.00509889
0.00511495
0.00512876
0.00514054
0.00514993
0.00515776
0.00516387
0.00516821
0.0051709
0.00517176
0.00517115
0.00516867
0.00516541
0.00516117
0.00515514
0.00514798
0.00514009
0.00513073
0.00512159
0.00511087
0.00509905
0.00508746
0.00507482
0.0050615
0.00504695
0.00503177
0.00501655
0.00499993
0.00498341
0.00496626
0.00494882
0.00493116
0.00491282
0.00489362
0.00487311
0.00485229
0.00483061
0.00480825
0.00478362
0.00475803
0.00473057
0.00470085
0.00466887
0.00463409
0.00459684
0.00455671
0.00451526
0.0044718
0.00442753
0.0043828
0.00433843
0.00429564
0.00425542
0.00421906
0.00418691
0.0041608
0.00414243
0.00413497
0.000931051
0.000931785
0.000932656
0.000933606
0.000934607
0.000935654
0.000936733
0.000937847
0.000939003
0.000940224
0.000941534
0.000942972
0.000944548
0.000946025
0.00094782
0.00095003
0.000952687
0.000956005
0.000960259
0.000965782
0.000972994
0.000982469
0.000994925
0.0010112
0.0010323
0.00105915
0.00109282
0.00113441
0.0011847
0.00124407
0.0013128
0.00139081
0.0014778
0.00157322
0.00167646
0.00178677
0.00190361
0.00202617
0.00215376
0.00228568
0.00242113
0.00255943
0.00269983
0.0028413
0.00298274
0.00312291
0.00326095
0.00339599
0.00352694
0.00365332
0.00377461
0.00389059
0.00400091
0.00410474
0.00420273
0.0042947
0.00438072
0.00446064
0.00453509
0.00460408
0.00466741
0.00472547
0.00477848
0.00482705
0.00487166
0.00491252
0.00494965
0.00498352
0.00501343
0.00504015
0.0050639
0.0050845
0.00510236
0.00511794
0.00513124
0.00514246
0.00515152
0.00515901
0.00516474
0.00516875
0.00517093
0.00517141
0.0051707
0.00516805
0.00516463
0.00516016
0.00515383
0.00514669
0.00513862
0.0051293
0.00511982
0.005109
0.00509729
0.0050854
0.00507278
0.0050593
0.0050448
0.0050296
0.00501415
0.00499765
0.00498114
0.00496393
0.00494653
0.00492877
0.00491028
0.00489108
0.00487075
0.0048499
0.00482832
0.00480574
0.00478133
0.00475565
0.00472818
0.00469843
0.00466629
0.00463151
0.00459429
0.00455424
0.00451262
0.00446922
0.00442495
0.00438021
0.00433593
0.00429319
0.00425311
0.00421674
0.00418474
0.00415882
0.00414055
0.00413318
0.000885072
0.000886276
0.000887603
0.000888971
0.000890345
0.000891725
0.000893107
0.000894495
0.0008959
0.00089736
0.000898927
0.00090066
0.000902629
0.00090498
0.000907905
0.000911645
0.000916486
0.000922919
0.000931499
0.000942915
0.000957964
0.000977546
0.00100262
0.00103402
0.00107255
0.00111878
0.00117304
0.00123542
0.00130578
0.00138379
0.00146897
0.0015608
0.00165867
0.00176199
0.00187025
0.00198288
0.00209947
0.00221946
0.00234236
0.00246776
0.00259509
0.00272396
0.00285387
0.00298409
0.00311391
0.00324241
0.00336903
0.00349303
0.00361388
0.00373091
0.00384372
0.00395188
0.0040552
0.00415299
0.00424552
0.00433262
0.00441428
0.00449054
0.00456153
0.00462757
0.0046882
0.00474395
0.00479508
0.00484188
0.00488485
0.00492427
0.00495993
0.0049924
0.0050213
0.00504708
0.00506993
0.00508982
0.00510687
0.00512189
0.00513459
0.00514517
0.00515376
0.00516087
0.0051662
0.00516981
0.00517153
0.00517175
0.00517065
0.00516784
0.00516424
0.00515937
0.00515289
0.00514568
0.00513737
0.00512809
0.00511833
0.00510741
0.00509562
0.00508355
0.00507081
0.00505727
0.00504272
0.00502745
0.00501194
0.00499541
0.0049789
0.00496175
0.00494429
0.00492645
0.00490781
0.00488862
0.00486841
0.00484755
0.00482596
0.0048033
0.00477895
0.00475314
0.0047256
0.00469586
0.00466357
0.00462873
0.0045915
0.00455154
0.0045098
0.00446645
0.00442212
0.0043774
0.00433315
0.00429054
0.00425051
0.00421418
0.00418235
0.00415653
0.0041385
0.00413131
0.000829118
0.000830591
0.000832235
0.000833874
0.000835463
0.000837029
0.000838581
0.000840159
0.000841808
0.000843643
0.000845823
0.000848487
0.000851919
0.000856513
0.000862697
0.000871085
0.000882368
0.000897328
0.000916833
0.000941694
0.000972651
0.00101036
0.00105522
0.00110738
0.00116659
0.00123279
0.00130557
0.00138426
0.0014685
0.00155786
0.00165179
0.00174986
0.0018516
0.00195668
0.00206473
0.00217551
0.00228866
0.00240389
0.00252086
0.00263933
0.00275876
0.00287906
0.00299973
0.00312024
0.0032401
0.00335867
0.00347534
0.00358976
0.0037014
0.00380986
0.0039147
0.0040155
0.00411219
0.00420393
0.00429097
0.00437304
0.00445027
0.00452262
0.00459007
0.00465279
0.00471071
0.00476406
0.00481307
0.00485794
0.00489915
0.00493699
0.00497123
0.00500232
0.00503008
0.00505485
0.00507666
0.00509568
0.00511207
0.00512638
0.00513841
0.00514845
0.00515654
0.00516314
0.005168
0.0051711
0.0051725
0.00517229
0.00517085
0.00516787
0.00516394
0.00515874
0.00515214
0.00514478
0.0051363
0.00512689
0.00511688
0.00510587
0.00509404
0.00508178
0.00506895
0.00505522
0.00504063
0.00502531
0.00500972
0.00499318
0.00497657
0.00495946
0.00494192
0.00492403
0.00490534
0.00488609
0.00486596
0.0048451
0.00482343
0.00480073
0.00477639
0.00475052
0.00472287
0.00469309
0.00466071
0.00462577
0.00458846
0.00454854
0.00450675
0.00446332
0.00441902
0.00437424
0.00433009
0.00428755
0.00424764
0.00421128
0.00417968
0.00415405
0.00413611
0.00412917
0.000756036
0.00075812
0.000760305
0.000762105
0.000763772
0.000765438
0.000767205
0.000769221
0.000771722
0.000775048
0.000779627
0.000785994
0.000794798
0.000806783
0.000822751
0.000843499
0.000869734
0.00090205
0.000940823
0.000986223
0.00103819
0.0010965
0.00116078
0.00123057
0.00130534
0.00138468
0.00146812
0.00155518
0.00164551
0.00173891
0.00183512
0.00193388
0.00203487
0.00213797
0.00224302
0.00234981
0.00245813
0.00256785
0.00267878
0.00279059
0.00290305
0.00301588
0.00312878
0.00324133
0.003353
0.00346341
0.00357201
0.00367854
0.00378265
0.00388398
0.00398203
0.00407635
0.00416707
0.00425338
0.00433533
0.00441286
0.004486
0.00455457
0.00461857
0.0046782
0.00473343
0.00478431
0.00483122
0.00487429
0.00491377
0.00494995
0.00498277
0.00501248
0.00503902
0.00506268
0.00508348
0.00510162
0.00511741
0.00513092
0.00514238
0.00515187
0.00515938
0.00516541
0.00516986
0.00517243
0.00517344
0.00517292
0.00517108
0.00516785
0.00516364
0.00515822
0.00515136
0.00514375
0.00513511
0.00512559
0.00511542
0.00510427
0.00509232
0.00507993
0.00506696
0.0050531
0.00503841
0.00502313
0.00500735
0.00499081
0.00497416
0.00495702
0.00493947
0.00492149
0.00490277
0.00488342
0.00486335
0.00484244
0.00482078
0.004798
0.00477365
0.0047477
0.00471998
0.00469006
0.00465754
0.00462256
0.00458518
0.00454524
0.00450335
0.00445988
0.00441556
0.00437082
0.00432669
0.00428416
0.00424437
0.00420819
0.00417669
0.00415128
0.00413359
0.00412681
0.000661573
0.000663359
0.000665102
0.000666768
0.000668617
0.000671004
0.000674359
0.000679246
0.000686347
0.000696408
0.000710244
0.000728642
0.000752295
0.000781733
0.000817268
0.000859021
0.00090683
0.000960419
0.00101937
0.00108322
0.00115147
0.00122364
0.00129941
0.00137837
0.00146023
0.0015447
0.00163152
0.00172055
0.00181162
0.00190461
0.00199942
0.00209594
0.00219402
0.00229361
0.0023946
0.0024969
0.00260028
0.00270478
0.00281017
0.00291623
0.00302273
0.00312948
0.00323611
0.00334228
0.00344757
0.00355165
0.003654
0.00375442
0.00385264
0.00394826
0.00404105
0.00413015
0.00421589
0.00429767
0.0043754
0.00444911
0.00451864
0.004584
0.00464497
0.00470184
0.0047546
0.00480336
0.00484823
0.00488961
0.00492752
0.00496214
0.0049937
0.00502204
0.00504743
0.00507016
0.00509004
0.00510735
0.00512242
0.00513522
0.00514603
0.00515492
0.00516193
0.00516745
0.0051714
0.00517353
0.00517421
0.0051734
0.00517119
0.00516771
0.00516315
0.00515754
0.00515044
0.00514262
0.00513376
0.00512412
0.00511375
0.00510247
0.00509047
0.00507793
0.00506478
0.00505081
0.00503603
0.00502069
0.00500484
0.0049883
0.00497156
0.00495439
0.00493678
0.00491875
0.00489999
0.0048806
0.00486059
0.00483963
0.00481792
0.00479507
0.00477066
0.00474461
0.00471679
0.00468677
0.00465414
0.00461904
0.00458156
0.00454157
0.00449962
0.00445611
0.00441168
0.00436696
0.00432287
0.00428048
0.00424079
0.00420472
0.00417341
0.00414824
0.00413078
0.00412426
0.000532467
0.000534554
0.000537235
0.000541159
0.000547179
0.000556179
0.00056905
0.00058662
0.000609594
0.000638447
0.000673369
0.000714284
0.000760893
0.000812721
0.000869233
0.000929906
0.000994246
0.00106181
0.00113223
0.00120523
0.00128057
0.00135801
0.00143746
0.00151876
0.00160183
0.00168663
0.00177289
0.00186064
0.00194993
0.00204063
0.00213272
0.00222618
0.00232083
0.00241671
0.00251385
0.00261203
0.00271116
0.00281123
0.00291207
0.00301346
0.00311524
0.0032172
0.00331902
0.00342045
0.00352102
0.00362032
0.00371805
0.00381407
0.00390796
0.00399938
0.00408811
0.0041735
0.00425549
0.00433386
0.00440834
0.00447902
0.00454577
0.00460858
0.00466716
0.00472185
0.00477255
0.0048195
0.00486271
0.00490262
0.00493924
0.00497255
0.00500286
0.00503012
0.00505467
0.00507641
0.00509546
0.0051121
0.00512652
0.00513876
0.00514895
0.00515731
0.00516385
0.00516896
0.00517236
0.00517414
0.00517445
0.00517335
0.00517088
0.00516708
0.00516229
0.00515638
0.00514916
0.00514116
0.00513213
0.00512236
0.00511178
0.00510042
0.00508832
0.00507566
0.00506239
0.00504824
0.00503344
0.00501809
0.00500207
0.00498553
0.00496871
0.00495149
0.00493384
0.00491576
0.00489695
0.00487753
0.00485755
0.00483655
0.00481479
0.00479181
0.00476741
0.00474126
0.00471329
0.00468321
0.00465041
0.00461523
0.00457759
0.00453755
0.00449547
0.00445198
0.00440745
0.00436275
0.00431872
0.00427643
0.00423677
0.00420089
0.00416984
0.00414485
0.00412772
0.00412148
0.000366758
0.000374403
0.000386831
0.000404738
0.000428762
0.000459259
0.000496216
0.000539281
0.000587822
0.000641045
0.000698138
0.0007584
0.000821305
0.000886367
0.000953413
0.00102228
0.00109287
0.00116517
0.00123886
0.00131401
0.00139058
0.00146848
0.00154769
0.0016283
0.0017102
0.00179344
0.00187799
0.00196381
0.00205092
0.00213927
0.00222871
0.00231938
0.0024112
0.00250413
0.00259821
0.00269321
0.00278912
0.00288587
0.00298333
0.00308137
0.00317964
0.00327812
0.00337653
0.00347458
0.00357186
0.00366787
0.0037625
0.00385548
0.00394653
0.00403509
0.00412108
0.00420403
0.00428356
0.0043596
0.00443194
0.00450064
0.00456545
0.00462644
0.00468335
0.00473645
0.00478573
0.00483134
0.0048734
0.00491223
0.00494775
0.00498009
0.00500948
0.00503601
0.00505975
0.00508083
0.00509931
0.00511536
0.00512924
0.00514097
0.00515074
0.00515864
0.00516481
0.00516956
0.00517255
0.005174
0.00517398
0.00517268
0.00516998
0.00516592
0.00516091
0.00515475
0.00514738
0.00513921
0.00513008
0.00512016
0.00510949
0.00509798
0.0050858
0.00507298
0.00505962
0.00504537
0.0050305
0.00501509
0.00499903
0.00498244
0.0049656
0.00494832
0.00493063
0.00491247
0.00489368
0.00487424
0.00485418
0.00483313
0.00481133
0.00478835
0.00476386
0.0047376
0.00470953
0.00467925
0.00464637
0.00461101
0.0045733
0.00453312
0.004491
0.00444739
0.00440285
0.00435812
0.00431414
0.00427196
0.00423241
0.00419671
0.00416593
0.00414113
0.0041243
0.00411839
0.000164431
0.000203126
0.000247386
0.000297833
0.000354349
0.000415636
0.000479941
0.000545808
0.000612304
0.000679023
0.000745914
0.000813123
0.000880857
0.000949384
0.00101885
0.00108934
0.00116093
0.0012337
0.0013077
0.00138266
0.00145874
0.00153595
0.00161433
0.00169395
0.00177482
0.0018569
0.00194016
0.00202465
0.0021103
0.00219703
0.00228488
0.00237384
0.00246386
0.00255495
0.0026471
0.00274019
0.00283403
0.00292863
0.00302395
0.00311984
0.00321597
0.00331224
0.00340852
0.00350447
0.00359967
0.00369375
0.00378652
0.0038778
0.00396719
0.00405417
0.0041386
0.00422013
0.00429838
0.00437331
0.00444455
0.00451214
0.00457599
0.004636
0.00469209
0.00474426
0.00479276
0.00483762
0.00487907
0.0049172
0.00495219
0.00498394
0.00501272
0.00503875
0.00506203
0.0050827
0.0051008
0.00511655
0.00513007
0.00514149
0.0051509
0.00515848
0.0051644
0.00516886
0.00517161
0.00517281
0.00517258
0.00517102
0.00516815
0.00516393
0.00515874
0.0051524
0.00514493
0.0051367
0.00512744
0.0051174
0.00510663
0.00509504
0.00508276
0.00506989
0.00505638
0.00504205
0.00502716
0.00501169
0.00499559
0.00497899
0.00496206
0.00494474
0.00492706
0.00490885
0.00489003
0.00487061
0.00485049
0.00482951
0.00480758
0.0047845
0.00475997
0.0047336
0.00470546
0.00467503
0.00464197
0.00460648
0.00456858
0.00452835
0.00448611
0.00444241
0.00439781
0.00435313
0.00430914
0.00426706
0.00422774
0.00419219
0.00416159
0.00413719
0.00412066
0.00411504
7.26255e-05
0.000144545
0.000223252
0.000299643
0.000371059
0.000437801
0.000501669
0.000564191
0.000626316
0.000689537
0.000754412
0.000820921
0.000888957
0.000958328
0.00102898
0.00110069
0.00117347
0.00124728
0.00132208
0.00139783
0.00147459
0.00155234
0.0016312
0.00171121
0.00179236
0.00187463
0.00195797
0.00204245
0.00212801
0.00221449
0.00230193
0.00239045
0.00248
0.0025705
0.00266195
0.00275423
0.00284733
0.00294097
0.0030353
0.00313018
0.00322535
0.00332059
0.00341579
0.00351069
0.003605
0.00369819
0.00379027
0.00388088
0.00396968
0.00405609
0.00414008
0.00422132
0.00429932
0.00437395
0.00444509
0.00451257
0.00457625
0.00463614
0.00469204
0.00474411
0.00479252
0.0048373
0.00487859
0.00491668
0.00495145
0.00498304
0.00501175
0.00503761
0.00506075
0.00508128
0.00509934
0.00511492
0.00512829
0.00513959
0.00514894
0.00515637
0.00516209
0.00516641
0.00516904
0.00517012
0.00516977
0.00516806
0.00516507
0.0051608
0.00515549
0.00514902
0.00514151
0.00513321
0.00512392
0.00511379
0.00510293
0.00509129
0.00507895
0.005066
0.00505244
0.00503808
0.00502315
0.00500763
0.00499154
0.00497491
0.00495794
0.00494058
0.00492288
0.00490466
0.00488587
0.00486644
0.00484628
0.00482521
0.00480327
0.00478017
0.0047555
0.00472912
0.00470077
0.00467017
0.00463697
0.00460128
0.00456327
0.00452288
0.00448056
0.00443674
0.00439211
0.00434742
0.00430355
0.00426156
0.00422238
0.0041871
0.0041568
0.00413265
0.00411647
0.00411124
3.47563e-06
1.52036e-05
4.20666e-05
8.66247e-05
0.000148158
0.000222999
0.000305691
0.000391147
0.000475811
0.000557891
0.00063772
0.000716114
0.000793814
0.000871339
0.000949006
0.00102675
0.00110465
0.00118301
0.001262
0.0013418
0.00142235
0.0015035
0.00158555
0.00166844
0.00175213
0.00183673
0.00192219
0.0020086
0.00209589
0.00218394
0.00227284
0.0023626
0.00245328
0.00254474
0.00263693
0.0027299
0.00282348
0.00291772
0.00301239
0.00310753
0.00320294
0.00329835
0.0033938
0.00348886
0.00358335
0.00367692
0.00376936
0.00386038
0.00394967
0.00403677
0.0041214
0.00420336
0.00428221
0.00435775
0.00442976
0.0044981
0.00456265
0.00462339
0.00468011
0.00473294
0.00478206
0.00482753
0.00486944
0.00490804
0.00494339
0.00497541
0.00500452
0.00503073
0.00505424
0.00507502
0.00509335
0.00510914
0.00512269
0.00513411
0.00514359
0.00515114
0.00515697
0.00516129
0.00516393
0.00516505
0.00516473
0.00516303
0.00516004
0.0051558
0.00515047
0.00514403
0.00513648
0.00512821
0.00511893
0.00510878
0.00509787
0.00508626
0.0050739
0.00506095
0.00504731
0.00503296
0.00501806
0.00500252
0.00498644
0.00496981
0.00495285
0.00493547
0.00491775
0.00489955
0.00488075
0.00486131
0.00484116
0.0048201
0.0047981
0.00477487
0.00475016
0.00472367
0.00469511
0.00466433
0.004631
0.00459512
0.00455696
0.00451641
0.0044739
0.00443005
0.00438537
0.00434065
0.00429684
0.00425503
0.0042161
0.00418101
0.00415105
0.00412728
0.00411157
0.00410672
2.12555e-07
4.57405e-07
1.80483e-06
6.33019e-06
1.7797e-05
4.09774e-05
7.9736e-05
0.000135299
0.000206063
0.00028815
0.000377069
0.000469101
0.000561911
0.000654383
0.000746131
0.000837228
0.000927495
0.00101693
0.00110589
0.00119465
0.00128339
0.00137225
0.00146124
0.0015503
0.00163965
0.00172945
0.00181979
0.00191073
0.00200225
0.00209427
0.00218678
0.00227992
0.00237366
0.00246797
0.00256289
0.00265824
0.00275413
0.00285047
0.00294714
0.0030441
0.00314119
0.00323835
0.00333528
0.00343191
0.00352798
0.00362317
0.0037173
0.00380999
0.00390114
0.00399008
0.00407666
0.00416062
0.00424158
0.00431919
0.00439332
0.00446369
0.00453033
0.004593
0.00465168
0.0047064
0.00475726
0.00480437
0.00484789
0.00488797
0.00492464
0.00495793
0.00498816
0.00501534
0.00503975
0.00506146
0.00508049
0.00509705
0.00511119
0.0051232
0.00513322
0.0051412
0.00514745
0.00515209
0.00515502
0.00515644
0.00515628
0.00515481
0.00515203
0.00514799
0.00514282
0.00513653
0.00512916
0.00512094
0.00511179
0.00510176
0.00509091
0.00507938
0.00506708
0.00505411
0.00504058
0.00502627
0.0050114
0.00499595
0.00497991
0.00496336
0.00494638
0.00492906
0.00491134
0.00489315
0.00487437
0.00485497
0.00483481
0.00481373
0.00479171
0.00476843
0.00474362
0.00471695
0.00468827
0.00465727
0.00462373
0.00458765
0.00454927
0.00450854
0.00446591
0.00442195
0.00437721
0.00433261
0.00428891
0.00424722
0.00420848
0.00417377
0.00414417
0.00412088
0.00410562
0.00410133
3.27258e-07
2.97675e-07
2.48825e-07
2.74853e-07
5.78691e-07
1.73329e-06
5.26307e-06
1.41102e-05
3.2444e-05
6.44616e-05
0.000112727
0.000177226
0.000255619
0.000344286
0.00043941
0.000538139
0.000638618
0.000739706
0.000840797
0.000941602
0.00104201
0.00114203
0.00124176
0.0013412
0.00144019
0.0015389
0.00163756
0.00173618
0.00183488
0.00193356
0.00203226
0.00213118
0.00223035
0.00232983
0.00242958
0.00252952
0.00262971
0.00273006
0.00283052
0.0029311
0.00303165
0.00313215
0.00323233
0.00333216
0.00343127
0.00352955
0.0036268
0.00372267
0.00381696
0.00390922
0.00399911
0.00408649
0.00417085
0.00425192
0.00432949
0.00440341
0.00447343
0.00453941
0.00460131
0.00465925
0.00471308
0.00476309
0.00480936
0.00485198
0.00489102
0.00492659
0.00495878
0.00498792
0.00501408
0.0050374
0.00505793
0.00507584
0.00509134
0.0051044
0.00511549
0.00512445
0.00513155
0.00513695
0.00514057
0.00514266
0.00514308
0.00514209
0.00513976
0.00513613
0.0051314
0.00512544
0.00511843
0.0051105
0.00510165
0.00509187
0.00508119
0.00506984
0.00505775
0.00504493
0.00503153
0.00501736
0.00500265
0.00498728
0.00497141
0.00495496
0.0049381
0.00492089
0.00490324
0.0048851
0.00486639
0.00484708
0.00482687
0.00480587
0.00478381
0.00476043
0.00473552
0.00470875
0.00467987
0.00464863
0.00461488
0.00457861
0.00454
0.00449909
0.0044563
0.00441221
0.00436744
0.00432284
0.00427931
0.00423783
0.00419941
0.00416511
0.00413598
0.00411318
0.00409861
0.00409494
3.31442e-07
3.2344e-07
3.15e-07
3.04088e-07
2.85426e-07
2.57597e-07
2.68791e-07
4.54089e-07
1.1641e-06
3.36964e-06
9.17457e-06
2.20196e-05
4.61157e-05
8.51297e-05
0.00014076
0.000212335
0.000297366
0.000392431
0.00049412
0.00059977
0.000707633
0.000816649
0.000926203
0.00103597
0.0011456
0.00125493
0.00136394
0.00147258
0.00158095
0.00168911
0.001797
0.00190459
0.00201196
0.00211916
0.0022263
0.00233312
0.00243979
0.00254634
0.00265277
0.00275907
0.00286511
0.00297078
0.00307606
0.00318073
0.00328471
0.00338783
0.00348983
0.00359045
0.00368945
0.00378649
0.00388132
0.00397354
0.00406286
0.00414893
0.00423154
0.00431028
0.00438522
0.00445604
0.00452266
0.00458516
0.00464354
0.00469783
0.00474815
0.00479467
0.00483736
0.00487638
0.00491192
0.00494402
0.00497297
0.0049989
0.00502192
0.00504204
0.00505954
0.00507463
0.00508746
0.00509804
0.00510666
0.0051134
0.00511825
0.00512144
0.0051229
0.00512289
0.00512138
0.00511857
0.00511456
0.00510927
0.00510289
0.00509554
0.00508719
0.00507786
0.00506762
0.00505665
0.00504488
0.00503243
0.00501928
0.00500544
0.00499096
0.0049759
0.00496026
0.00494398
0.00492734
0.00491027
0.00489279
0.00487485
0.00485626
0.00483703
0.00481696
0.00479595
0.00477386
0.00475049
0.0047255
0.00469858
0.00466947
0.00463799
0.00460405
0.00456751
0.00452866
0.00448753
0.00444457
0.0044004
0.00435565
0.00431109
0.00426776
0.00422654
0.00418846
0.00415463
0.00412604
0.00410394
0.00409013
0.00408714
3.30458e-07
3.22187e-07
3.14864e-07
3.0837e-07
3.02505e-07
2.96853e-07
2.90373e-07
2.80434e-07
2.63174e-07
2.53204e-07
3.26048e-07
6.68673e-07
1.80218e-06
5.02742e-06
1.28631e-05
2.90576e-05
5.78423e-05
0.000102569
0.000164471
0.000242436
0.000333681
0.00043478
0.000542512
0.000654529
0.000769233
0.000885563
0.00100281
0.0011205
0.00123829
0.00135613
0.00147384
0.00159129
0.00170839
0.00182511
0.00194151
0.00205768
0.00217335
0.00228854
0.00240322
0.00251749
0.00263116
0.00274411
0.00285639
0.00296805
0.00307887
0.00318868
0.00329722
0.00340435
0.00350988
0.00361349
0.00371487
0.00381368
0.00390955
0.00400219
0.00409137
0.00417677
0.00425822
0.00433547
0.00440851
0.00447721
0.00454166
0.0046019
0.00465794
0.00470982
0.00475771
0.00480156
0.00484173
0.00487822
0.00491129
0.00494096
0.00496761
0.00499108
0.00501173
0.00502978
0.00504531
0.00505839
0.00506931
0.00507815
0.00508499
0.00508993
0.00509311
0.00509457
0.00509451
0.005093
0.00509014
0.00508597
0.00508063
0.0050742
0.00506672
0.00505821
0.00504868
0.00503837
0.00502721
0.00501529
0.00500267
0.00498936
0.00497529
0.00496067
0.00494543
0.00492954
0.00491321
0.00489646
0.00487923
0.00486151
0.0048432
0.00482414
0.00480426
0.00478336
0.00476133
0.00473793
0.00471285
0.00468579
0.00465648
0.0046248
0.00459062
0.00455386
0.0045147
0.00447337
0.00443028
0.00438602
0.00434128
0.00429686
0.0042537
0.00421288
0.00417527
0.00414198
0.00411416
0.00409282
0.00407986
0.00407775
3.3014e-07
3.21853e-07
3.1459e-07
3.08172e-07
3.02461e-07
2.97359e-07
2.92766e-07
2.88578e-07
2.84624e-07
2.80485e-07
2.75066e-07
2.65836e-07
2.52373e-07
2.62211e-07
3.89887e-07
8.78204e-07
2.39678e-06
6.49923e-06
1.59978e-05
3.48356e-05
6.72099e-05
0.000116205
0.000182729
0.000265487
0.000361704
0.000468064
0.000581497
0.000699611
0.0008208
0.000944075
0.00106872
0.00119416
0.00131997
0.00144585
0.00157163
0.00169728
0.00182261
0.00194747
0.00207179
0.00219555
0.00231877
0.00244131
0.00256294
0.00268373
0.00280353
0.002922
0.00303902
0.00315465
0.00326867
0.00338068
0.00349043
0.00359756
0.00370184
0.00380287
0.00390037
0.00399413
0.0040839
0.00416943
0.00425061
0.00432738
0.00439969
0.00446754
0.00453099
0.00458997
0.00464466
0.00469519
0.00474166
0.00478407
0.0048227
0.00485775
0.0048893
0.00491752
0.0049426
0.00496477
0.00498419
0.00500086
0.00501512
0.00502709
0.00503679
0.00504441
0.00505004
0.00505385
0.00505593
0.00505642
0.00505538
0.00505287
0.00504908
0.00504411
0.00503795
0.00503066
0.00502236
0.00501306
0.0050029
0.00499182
0.00498003
0.00496752
0.00495419
0.0049402
0.0049256
0.0049103
0.00489454
0.00487829
0.00486153
0.00484416
0.00482625
0.00480745
0.00478784
0.0047672
0.00474529
0.0047219
0.00469682
0.00466969
0.00464019
0.00460829
0.00457382
0.00453687
0.00449747
0.00445595
0.00441271
0.00436836
0.00432373
0.00427943
0.00423669
0.00419622
0.00415926
0.00412668
0.00409966
0.00407923
0.00406736
0.00406634
3.29988e-07
3.21655e-07
3.14378e-07
3.07954e-07
3.02248e-07
2.97145e-07
2.92558e-07
2.88414e-07
2.84647e-07
2.81207e-07
2.78042e-07
2.75083e-07
2.72183e-07
2.68963e-07
2.64426e-07
2.56605e-07
2.48128e-07
2.73485e-07
4.39204e-07
1.02709e-06
2.79234e-06
7.40884e-06
1.77977e-05
3.79666e-05
7.21449e-05
0.000123473
0.000192938
0.00027927
0.000379649
0.000490772
0.000609571
0.000733635
0.000861277
0.000991366
0.00112306
0.0012558
0.00138915
0.00152272
0.00165623
0.00178951
0.00192244
0.00205492
0.0021867
0.00231765
0.0024477
0.00257677
0.00270454
0.00283078
0.00295528
0.00307775
0.00319772
0.00331514
0.00342971
0.00354103
0.00364878
0.00375278
0.00385278
0.00394846
0.00403974
0.00412646
0.0042085
0.00428589
0.00435863
0.00442675
0.00449019
0.00454912
0.00460359
0.00465375
0.00469976
0.00474182
0.00478005
0.0048146
0.00484567
0.00487343
0.00489809
0.0049198
0.00493867
0.00495493
0.00496869
0.0049801
0.00498927
0.00499634
0.00500151
0.00500487
0.00500645
0.00500643
0.00500495
0.00500208
0.0049979
0.00499248
0.00498581
0.00497814
0.00496939
0.0049597
0.00494919
0.00493784
0.00492562
0.00491267
0.004899
0.00488463
0.00486968
0.00485419
0.00483814
0.00482143
0.00480403
0.00478579
0.00476659
0.00474629
0.00472459
0.0047014
0.00467636
0.00464915
0.00461955
0.00458747
0.00455286
0.00451563
0.00447599
0.00443429
0.00439096
0.00434665
0.00430209
0.00425813
0.00421581
0.00417593
0.00413969
0.00410803
0.00408205
0.00406274
0.00405217
0.0040524
3.29914e-07
3.21562e-07
3.14294e-07
3.07894e-07
3.02202e-07
2.97107e-07
2.92517e-07
2.88358e-07
2.84571e-07
2.81106e-07
2.77923e-07
2.74988e-07
2.72272e-07
2.69747e-07
2.67385e-07
2.65138e-07
2.6289e-07
2.60322e-07
2.56608e-07
2.50295e-07
2.45179e-07
2.76523e-07
4.51872e-07
1.058e-06
2.85448e-06
7.51093e-06
1.79441e-05
3.81878e-05
7.25734e-05
0.00012446
0.000195129
0.000283549
0.000387023
0.00050219
0.00062582
0.000755378
0.000889041
0.00102559
0.00116413
0.00130395
0.00144452
0.00158548