/*--------------------------------*- C++ -*----------------------------------*\
| =========                 |                                                 |
| \\      /  F ield         | OpenFOAM: The Open Source CFD Toolbox           |
|  \\    /   O peration     | Version:  1.7.0                                 |
|   \\  /    A nd           | Web:      www.OpenFOAM.com                      |
|    \\/     M anipulation  |                                                 |
\*---------------------------------------------------------------------------*/
FoamFile
{
    version     2.0;
    format      ascii;
    class       volScalarField;
    location    "0.33";
    object      epsilon;
}
// * * * * * * * * * * * * * * * * * * * * * * * * * * * * * * * * * * * * * //

dimensions      [0 2 -3 0 0 0 0];

internalField   nonuniform List<scalar> 
5460
(
858.646
860.383
861.927
863.346
864.69
866.001
867.316
868.664
870.069
871.553
873.139
874.848
876.705
878.737
880.982
883.487
886.318
889.562
893.342
897.822
903.226
909.858
918.127
928.579
941.943
959.19
981.602
1010.87
1049.23
1099.58
1165.69
1252.33
1365.46
1512.2
1700.65
1939.2
2235.39
2594.14
3015.81
3494.48
4017.22
4564.92
5114.33
5641.01
6122.33
6539.73
6880.03
7135.77
7304.81
7389.42
7395.17
7329.96
7202.99
7024.01
6802.76
6548.52
6269.8
5974.24
5668.47
5358.14
5047.93
4741.67
4442.36
4152.34
3873.34
3606.59
3352.9
3112.73
2886.27
2673.46
2474.09
2287.79
2114.11
1952.5
1802.41
1663.21
1534.29
1415.03
1304.81
1203.04
1109.14
1022.54
942.737
869.216
801.51
739.176
681.8
628.997
580.406
535.694
494.552
456.694
421.855
389.791
360.277
333.107
308.089
285.049
263.824
244.268
226.244
209.627
194.302
180.166
167.121
155.079
143.96
133.69
124.202
115.435
107.332
99.8419
92.9178
86.5162
80.5972
75.1238
70.0616
65.379
61.0461
57.0354
53.3213
49.88
46.6894
43.7288
40.9791
38.4223
36.0418
33.8201
31.7486
29.8669
922.54
923.218
924.076
925.082
926.213
927.464
928.834
930.328
931.955
933.726
935.657
937.771
940.096
942.674
945.56
948.832
952.595
956.997
962.235
968.577
976.382
986.127
998.444
1014.16
1034.37
1060.49
1094.35
1138.33
1195.43
1269.47
1365.14
1488.07
1644.77
1842.26
2087.53
2386.46
2742.54
3155.48
3620.04
4125.56
4656.35
5192.99
5714.36
6199.81
6631.16
6994.17
7279.32
7481.88
7601.49
7641.41
7607.66
7508.09
7351.63
7147.61
6905.27
6633.38
6339.97
6032.22
5716.36
5397.71
5080.64
4768.72
4464.75
4170.9
3888.74
3619.38
3363.55
3121.61
2893.68
2679.66
2479.28
2292.14
2117.77
1955.59
1805.01
1665.41
1536.16
1416.62
1306.16
1204.19
1110.12
1023.38
943.457
869.835
802.043
739.635
682.197
629.34
580.704
535.953
494.778
456.891
422.027
389.941
360.409
333.223
308.191
285.138
263.903
244.338
226.305
209.681
194.351
180.209
167.159
155.113
143.99
133.717
124.226
115.456
107.351
99.8591
92.9332
86.5301
80.6097
75.1351
70.072
65.3884
61.0547
57.0433
53.3286
49.8868
46.6956
43.7346
40.9845
38.4273
36.0465
33.8245
31.7527
29.8707
1057.99
1059.25
1060.71
1062.34
1064.13
1066.09
1068.22
1070.53
1073.05
1075.79
1078.8
1082.11
1085.8
1089.96
1094.73
1100.29
1106.88
1114.83
1124.61
1136.77
1152.1
1171.57
1196.45
1228.38
1269.41
1322.13
1389.75
1476.19
1586.12
1724.94
1898.58
2113.14
2374.25
2686.21
3050.97
3467.15
3929.35
4428.02
4949.95
5479.2
5998.5
6490.65
6939.78
7332.39
7658.03
7909.68
8083.81
8180.16
8201.36
8152.35
8039.8
7871.5
7655.86
7401.38
7116.38
6808.65
6485.29
6152.61
5816.06
5480.27
5149.03
4825.4
4511.77
4209.93
3921.18
3646.38
3386.05
3140.39
2909.38
2692.8
2490.3
2301.41
2125.57
1962.17
1810.57
1670.12
1540.15
1420.01
1309.05
1206.65
1112.22
1025.19
945.006
871.167
803.19
740.626
683.054
630.082
581.348
536.513
495.266
457.316
422.399
390.267
360.695
333.474
308.412
285.333
264.075
244.489
226.44
209.8
194.456
180.302
167.242
155.187
144.056
133.776
124.279
115.503
107.393
99.8966
92.9669
86.5604
80.6371
75.16
70.0945
65.409
61.0736
57.0607
53.3447
49.9016
46.7094
43.7474
40.9964
38.4384
36.0568
33.8341
31.7617
29.8792
1277.59
1279.89
1282.56
1285.54
1288.77
1292.26
1296.03
1300.1
1304.51
1309.33
1314.67
1320.65
1327.47
1335.4
1344.8
1356.15
1370.08
1387.44
1409.27
1436.95
1472.18
1517.1
1574.38
1647.23
1739.55
1855.86
2001.35
2181.59
2402.33
2668.83
2985.25
3353.72
3773.52
4240.5
4746.81
5281.18
5829.69
6376.77
6906.44
7403.39
7853.93
8246.67
8572.95
8826.97
9005.74
9108.87
9138.27
9097.74
8992.64
8829.44
8615.38
8358.13
8065.42
7744.84
7403.58
7048.28
6684.92
6318.73
5954.22
5595.14
5244.55
4904.85
4577.89
4265.01
3967.1
3684.7
3418.07
3167.18
2931.83
2711.64
2506.14
2314.74
2136.81
1971.67
1818.61
1676.94
1545.95
1424.94
1313.26
1210.25
1115.3
1027.83
947.275
873.12
804.875
742.082
684.315
631.176
582.298
537.341
495.987
457.946
422.95
390.75
361.119
333.846
308.74
285.622
264.33
244.715
226.639
209.977
194.613
180.442
167.366
155.297
144.154
133.863
124.357
115.573
107.456
99.9527
93.0174
86.6059
80.6782
75.1972
70.1285
65.44
61.102
57.0868
53.3688
49.9239
46.7301
43.7666
41.0143
38.455
36.0723
33.8486
31.7752
29.8919
1601.29
1605.9
1611.04
1616.61
1622.54
1628.88
1635.73
1643.17
1651.34
1660.47
1670.87
1682.97
1697.34
1714.75
1736.18
1762.91
1796.54
1839.09
1893.04
1961.39
2047.76
2156.38
2292.1
2460.27
2666.54
2916.48
3215.01
3565.7
3969.98
4426.47
4930.45
5473.82
6045.41
6631.76
7218.09
7789.37
8331.2
8830.55
9276.19
9659.02
9972.15
10211
10373.2
10458.8
10469.7
10409.6
10283.6
10097.9
9859.54
9575.8
9254.18
8902.05
8526.53
8134.31
7731.55
7323.79
6915.93
6512.17
6116.05
5730.44
5357.65
4999.4
4656.95
4331.14
4022.46
3731.09
3456.97
3199.85
2959.29
2734.77
2525.64
2331.21
2150.74
1983.47
1828.63
1685.45
1553.2
1431.13
1318.54
1214.78
1119.19
1031.17
950.149
875.599
807.017
743.936
685.923
632.573
583.514
538.4
496.913
458.756
423.659
391.372
361.666
334.328
309.164
285.997
264.661
245.008
226.899
210.208
194.818
180.624
167.528
155.441
144.283
133.978
124.459
115.665
107.537
100.026
93.0835
86.6656
80.7322
75.2462
70.1731
65.4807
61.1394
57.1212
53.4006
49.9534
46.7574
43.792
41.038
38.4771
36.0929
33.8678
31.7932
29.9087
2065.09
2073
2082.06
2091.97
2102.68
2114.36
2127.25
2141.7
2158.22
2177.54
2200.63
2228.78
2263.63
2307.23
2362.13
2431.44
2518.85
2628.7
2765.94
2936.07
3144.91
3398.32
3701.66
4059.16
4473.21
4943.54
5466.73
6035.91
6640.97
7269.16
7906.05
8536.65
9146.43
9722.1
10252.2
10727.4
11140.3
11485.4
11759.2
11959.4
12085
12136.5
12115.2
12024.2
11867.2
11649.4
11376.9
11056.3
10695
10300.2
9879.09
9438.71
8985.52
8525.45
8063.84
7605.36
7154
6713.12
6285.44
5873.11
5477.72
5100.43
4741.95
4402.67
4082.68
3781.81
3499.73
3235.92
2989.76
2760.53
2547.45
2349.7
2166.44
1996.82
1840
1695.15
1561.48
1438.22
1324.62
1220
1123.68
1035.03
953.488
878.487
809.519
746.107
687.809
634.216
584.947
539.652
498.007
459.715
424.501
392.113
362.317
334.902
309.671
286.445
265.058
245.36
227.211
210.485
195.064
180.843
167.723
155.615
144.438
134.117
124.583
115.776
107.637
100.116
93.1642
86.7384
80.7981
75.3061
70.2276
65.5307
61.1852
57.1635
53.4396
49.9896
46.7911
43.8234
41.0672
38.5043
36.1183
33.8914
31.8154
29.9295
2720.75
2736.3
2753.89
2773.17
2794.39
2818.31
2845.89
2878.37
2917.52
2965.62
3025.51
3100.69
3195.32
3314.29
3463.12
3647.92
3875.15
4151.26
4482.15
4872.52
5325.03
5839.55
6412.48
7036.45
7700.57
8390.99
9092.02
9787.38
10461.4
11099.9
11691.2
12226
12697.5
13101.1
13434.5
13696.4
13887.2
14007.9
14060.1
14045.7
13967
13826.3
13626.5
13370.9
13063.3
12708.3
12311.3
11878.2
11415.4
10929.3
10426.6
9913.44
9395.72
8878.74
8367.2
7865.14
7375.95
6902.36
6446.53
6010.05
5594.01
5199.11
4825.65
4473.64
4142.86
3832.86
3543.04
3272.7
3021.01
2787.1
2570.07
2368.98
2182.89
2010.87
1852.02
1705.45
1570.32
1445.81
1331.16
1225.63
1128.54
1039.24
957.133
881.649
812.266
748.498
689.894
636.036
586.539
541.046
499.23
460.79
425.446
392.945
363.052
335.551
310.245
286.954
265.509
245.76
227.567
210.802
195.347
181.095
167.948
155.816
144.617
134.277
124.727
115.904
107.753
100.22
93.2577
86.8229
80.8748
75.3758
70.2913
65.589
61.2388
57.213
53.4854
50.0321
46.8306
43.8602
41.1016
38.5364
36.1483
33.9194
31.8416
29.9542
3681.89
3712.57
3748.9
3790.58
3839.17
3897.34
3968.34
4056.22
4166.1
4304.05
4476.97
4692.35
4958.04
5281.7
5670.12
6128.34
6658.74
7260.11
7926.96
8649.31
9412.99
10200.6
10993.1
11770.9
12516.4
13214.2
13852.2
14421.8
14917.5
15336.6
15678.7
15945
16138
16260.8
16317.2
16310.8
16245.5
16125
15952.4
15730.9
15462.9
15151
14797.5
14404.7
13975.4
13512.8
13020.6
12503.4
11965.9
11413.6
10851.9
10286.3
9721.78
9163.19
8614.71
8079.96
7561.95
7063.05
6585.06
6129.27
5696.46
5287.03
4901.03
4538.23
4198.17
3880.21
3583.58
3307.41
3050.74
2812.59
2591.93
2387.74
2199
2024.73
1863.95
1715.73
1579.19
1453.48
1337.79
1231.38
1133.53
1043.57
960.902
884.933
815.132
751.003
692.086
637.958
588.225
542.528
500.535
461.94
426.461
393.842
363.845
336.254
310.869
287.507
266.002
246.199
227.958
211.15
195.657
181.372
168.196
156.038
144.816
134.455
124.886
116.047
107.881
100.336
93.3625
86.9178
80.9609
75.4542
70.363
65.6548
61.2994
57.269
53.5373
50.0803
46.8756
43.9022
41.1408
38.573
36.1825
33.9513
31.8717
29.9824
5175.03
5256.36
5354.3
5470.69
5612.2
5787.62
6006.43
6278.89
6615.71
7027.17
7521.75
8104.83
8777.41
9534.92
10366.6
11255.4
12179.4
13113.7
14032.4
14911.3
15729.6
16471.4
17125.9
17687.1
18153.5
18526.8
18810.6
19010.3
19131.8
19181.3
19165.2
19089.5
18959.8
18781.4
18558.8
18296.2
17997.2
17664.8
17301.6
16909.5
16490.3
16045.2
15575.4
15081.8
14565.9
14029
13473.6
12902.2
12318.3
11725.9
11129.3
10532.8
9940.91
9357.81
8787.3
8232.71
7696.81
7181.83
6689.42
6220.72
5776.43
5356.82
4961.83
4591.11
4244.11
3920.08
3618.16
3337.39
3076.72
2835.1
2611.44
2404.65
2213.68
2037.46
1875
1725.34
1587.55
1460.76
1344.13
1236.91
1138.36
1047.8
964.603
888.177
817.979
753.505
694.287
639.896
589.935
544.038
501.869
463.121
427.508
394.771
364.67
336.987
311.522
288.089
266.52
246.661
228.371
211.519
195.988
181.668
168.461
156.276
145.029
134.646
125.058
116.202
108.021
100.462
93.4764
87.0211
81.0549
75.5401
70.4416
65.7271
61.3661
57.3307
53.5947
50.1338
46.9254
43.9488
41.1844
38.6138
36.2207
33.987
31.9052
30.0139
7906.31
8171.25
8499.93
8897.69
9380.6
9965.42
10664.2
11482
12415.5
13451.6
14566.5
15727.1
16894.7
18029
19092.9
20055.6
20896
21602.9
22173.6
22611.8
22926.1
23127.2
23226.9
23237.1
23169.5
23034.4
22841.3
22598.3
22312.2
21989.1
21634.3
21252.2
20846.6
20420.6
19976.8
19517.2
19043.5
18556.9
18058.4
17548.6
17027.5
16495.3
15951.9
15397
14830.8
14253.4
13665.7
13069
12465.5
11857.7
11248.7
10642.3
10041.9
9451.24
8873.79
8312.64
7770.45
7249.38
6751.11
6276.8
5827.17
5402.53
5002.84
4627.78
4276.79
3949.13
3643.92
3360.19
3096.87
2852.88
2627.12
2418.46
2225.83
2048.16
1884.42
1733.63
1594.85
1467.18
1349.8
1241.9
1142.76
1051.69
968.034
891.21
820.662
755.88
696.392
641.763
591.592
545.51
503.179
464.286
428.546
395.696
365.496
337.725
312.181
288.679
267.049
247.135
228.796
211.901
196.33
181.976
168.737
156.524
145.252
134.847
125.239
116.366
108.168
100.595
93.5974
87.1311
81.1552
75.6318
70.5259
65.8047
61.4379
57.3973
53.6567
50.1916
46.9795
43.9994
41.2318
38.6583
36.2624
34.026
31.9419
30.0484
14655.8
15829.7
17054.3
18362.8
19781.1
21292.3
22843.3
24363.2
25782.3
27041.7
28096.9
28922.5
29513.8
29883
30053
30052.8
29913.4
29663.6
29327.5
28924.7
28470.6
27977.3
27454.2
26909.1
26348.6
25777.5
25199.3
24616.8
24031.7
23445.6
22859.9
22275.4
21692.8
21112.5
20534.3
19958.2
19384.1
18811.6
18240.2
17669.2
17097.8
16525
15950
15371.8
14789.6
14202.7
13610.9
13014.8
12415.2
11813.8
11212.7
10614.8
10022.9
9440.26
8869.93
8314.83
7777.57
7260.32
6764.85
6292.43
5843.93
5419.79
5020.12
4644.7
4293.07
3964.59
3658.44
3373.7
3109.36
2864.35
2637.59
2428
2234.48
2055.98
1891.47
1739.98
1600.55
1472.3
1354.39
1246.02
1146.45
1054.99
970.991
893.857
823.032
758.002
698.292
643.465
593.117
546.877
504.404
465.386
429.533
396.582
366.292
338.441
312.825
289.258
267.57
247.604
229.219
212.282
196.674
182.285
169.016
156.776
145.48
135.053
125.425
116.533
108.32
100.733
93.7228
87.2455
81.2598
75.7278
70.6143
65.8864
61.5137
57.4679
53.7225
50.2532
47.0372
44.0536
41.2827
38.706
36.3072
34.068
31.9815
30.0857
42920.2
43437.7
43806
44041.1
44227.7
44288.6
44126.1
43708.1
43060.9
42225
41245.5
40170.5
39043.6
37899.2
36761.3
35646.4
34566
33525.3
32523.9
31560
30631.3
29735.5
28870.4
28034.7
27227.3
26446.4
25689.7
24955.1
24240.7
23544.6
22866
22203.6
21555.9
20921.8
20299.6
19688.1
19086.4
18493.3
17907.5
17327.9
16753
16181.7
15612.6
15044.5
14476.1
13906.4
13334.7
12760.8
12185.1
11608.3
11032
10458.2
9889.25
9327.94
8777.01
8239.21
7717.07
7212.81
6728.31
6265.02
5824.01
5405.91
5011.03
4639.37
4290.65
3964.35
3659.81
3376.22
3112.66
2868.16
2641.7
2432.23
2238.72
2060.13
1895.49
1743.81
1604.17
1475.69
1357.55
1248.95
1149.15
1057.48
973.275
895.948
824.942
759.744
699.879
644.909
594.43
548.07
505.487
466.368
430.425
397.391
367.026
339.106
313.428
289.805
268.065
248.054
229.626
212.651
197.008
182.588
169.291
157.025
145.706
135.257
125.611
116.702
108.474
100.873
93.8502
87.3621
81.3668
75.8264
70.7054
65.9709
61.5923
57.5412
53.7912
50.3176
47.0978
44.1105
41.3363
38.7564
36.3546
34.1126
32.0236
30.1254
12025.7
21416.5
30201.8
36794.6
41021.9
43235.5
44003.8
43779.3
42892.4
41692.2
40376.6
39046.5
37747.9
36499.5
35306.6
34172.1
33094.9
32068.2
31085.6
30142.9
29237.3
28366.6
27528.7
26722.9
25947.6
25199.7
24476.3
23775.4
23094.5
22432.3
21788.1
21160.4
20547.7
19948.5
19361.4
18785.1
18218.7
17661.2
17111.5
16568.2
16030.2
15496.3
14965.4
14436.3
13907.7
13378.5
12847.9
12315.5
11781.1
11245.2
10708.7
10173
9640.26
9112.62
8592.59
8082.74
7585.53
7103.23
6637.82
6190.97
5763.93
5357.61
4972.58
4609.07
4267.04
3946.21
3646.09
3366.05
3105.32
2863.05
2638.34
2430.22
2237.75
2059.95
1895.89
1744.63
1605.29
1477.01
1358.99
1250.46
1150.68
1058.99
974.755
897.376
826.306
761.038
701.098
646.052
595.496
549.062
506.407
467.219
431.21
398.115
367.691
339.717
313.989
290.319
268.536
248.485
230.02
213.011
197.337
182.889
169.565
157.274
145.933
135.465
125.8
116.874
108.631
101.017
93.9824
87.4836
81.4788
75.93
70.8015
66.0604
61.676
57.6197
53.8649
50.387
47.1632
44.1722
41.3945
38.8114
36.4064
34.1613
32.0697
30.169
232.204
848.497
2155.15
4242.53
7044.3
10343
13802.8
17126.6
20034.8
22299.9
23947.1
25076.6
25797.6
26205.1
26376.6
26349.7
26163.7
25869.3
25502.2
25086.1
24636.9
24165.6
23679.7
23185.5
22685.8
22182.4
21677.3
21172.3
20668.5
20167.6
19671
19178.8
18690.7
18206.6
17726.1
17249.1
16776
16306.2
15839.4
15374.7
14911.6
14449.6
13987.9
13525.9
13062.5
12597
12128.7
11657
11181.9
10703.4
10222.3
9739.54
9256.81
8775.99
8299.27
7829.03
7367.65
6917.4
6480.37
6058.39
5652.97
5265.29
4896.19
4546.21
4215.6
3904.33
3612.2
3338.78
3083.52
2845.75
2624.71
2419.59
2229.55
2053.71
1891.22
1741.21
1602.87
1475.38
1357.98
1249.92
1150.51
1059.1
975.069
897.838
826.874
761.674
701.776
646.75
596.199
549.756
507.085
467.874
431.837
398.711
368.256
340.249
314.487
290.785
268.971
248.889
230.395
213.358
197.658
183.184
169.837
157.525
146.163
135.676
125.994
117.053
108.795
101.168
94.122
87.6127
81.5986
76.0415
70.9056
66.1579
61.7676
57.706
53.9464
50.4641
47.2362
44.2414
41.46
38.8733
36.465
34.2165
32.1221
30.2186
2.8763
10.6816
40.4267
129.252
343.703
775.069
1511.92
2607.86
4054.11
5756.22
7579.17
9387.36
11076.2
12582.9
13882.8
14987.9
15895.4
16605.2
17140.4
17527.2
17789.5
17948.2
18016.4
18001.4
17922.1
17793
17624.3
17423.7
17196.3
16947.2
16679.8
16396.4
16099.3
15790.6
15471.8
15144.7
14810.9
14470.9
14125.2
13774.1
13417.9
13056.8
12691.2
12320.6
11944.7
11563.1
11175.6
10782.1
10382.2
9976.25
9564.63
9148.3
8728.53
8306.92
7885.4
7466.16
7051.43
6643.47
6244.42
5856.25
5480.69
5119.16
4772.81
4442.49
4128.76
3831.92
3552.04
3288.99
3042.46
2812.01
2597.1
2397.08
2211.27
2038.93
1879.33
1731.71
1595.32
1469.43
1353.33
1246.33
1147.78
1057.06
973.578
896.79
826.177
761.254
701.572
646.714
596.29
549.943
507.341
468.179
432.175
399.07
368.624
340.62
314.855
291.144
269.319
249.223
230.714
213.661
197.944
183.454
170.09
157.761
146.383
135.881
126.184
117.23
108.96
101.321
94.2644
87.7457
81.7231
76.1583
71.0156
66.2618
61.8659
57.7993
54.0351
50.5485
47.3166
44.3179
41.5328
38.9425
36.5307
34.2787
32.1813
30.2748
0.793477
0.701778
0.899428
1.86999
5.1699
15.6462
45.6061
119.76
277.219
565.057
1024.75
1677.2
2513.46
3495.35
4564.5
5664.87
6747.24
7770.67
8708.96
9548.44
10284.4
10918.9
11461.1
11918.5
12287.5
12575.8
12792.4
12946.1
13044.8
13089.5
13087.5
13046.9
12974
12873.1
12747.5
12600.3
12433.6
12249.3
12049.1
11834.4
11606.5
11366.7
11115.7
10854
10581.8
10299.3
10006.8
9704.4
9392.24
9070.48
8739.66
8400.63
8054.43
7702.43
7346.32
6988.07
6629.78
6273.57
5921.6
5575.93
5238.41
4910.7
4594.2
4290.07
3999.16
3722.11
3459.3
3210.91
2976.92
2757.15
2551.29
2358.94
2179.59
2012.7
1857.66
1713.86
1580.66
1457.43
1343.54
1238.37
1141.34
1051.88
969.436
893.5
823.585
759.234
700.018
645.538
595.421
549.321
506.917
467.913
432.034
399.026
368.656
340.709
314.987
291.308
269.504
249.422
230.921
213.871
198.154
183.66
170.291
157.955
146.57
136.059
126.353
117.39
109.112
101.465
94.4006
87.8748
81.8458
76.2751
71.127
66.3682
61.9679
57.897
54.1289
50.6386
47.4031
44.4009
41.6123
39.0185
36.6032
34.3476
32.2472
30.3375
0.771107
0.601296
0.477152
0.392842
0.357367
0.420189
0.738051
1.79236
5.07752
14.6629
39.6437
96.3513
208.266
402.094
700.13
1113.94
1640.34
2260.42
2944.26
3659.4
4377.19
5075.56
5740.15
6362.71
6934.33
7449.95
7907.8
8308.23
8654.09
8952.42
9201.03
9401.05
9556.2
9670.37
9747.65
9787.55
9794.22
9772.36
9725.38
9655.7
9565.21
9455.49
9327.85
9183.4
9022.99
8847.5
8657.72
8454.05
8236.82
8006.41
7763.49
7508.88
7243.48
6968.43
6685.23
6395.65
6101.55
5804.91
5507.82
5212.31
4920.32
4633.62
4353.83
4082.33
3820.28
3568.58
3327.95
3098.86
2881.59
2676.25
2482.81
2301.1
2130.84
1971.7
1823.25
1685.04
1556.56
1437.32
1326.8
1224.46
1129.81
1042.34
961.572
887.033
818.284
754.905
696.497
642.689
593.128
547.489
505.465
466.774
431.151
398.353
368.155
340.347
314.737
291.148
269.416
249.391
230.934
213.918
198.226
183.751
170.395
158.068
146.688
136.18
126.476
117.512
109.232
101.583
94.5166
87.9881
81.9563
76.3829
71.2322
66.4709
62.0681
57.9948
54.2242
50.7313
47.4932
44.4882
41.6967
39.0998
36.6814
34.4224
32.3191
30.4063
0.767503
0.597517
0.471997
0.378192
0.307332
0.253701
0.214626
0.192229
0.20065
0.286617
0.588398
1.52957
4.34999
12.1754
31.4653
73.1087
152.102
284.961
485.347
760.095
1107.15
1515.91
1970.2
2452.97
2947.75
3440.5
3920.07
4378.07
4808.52
5209.52
5578.09
5911.65
6209.06
6470.28
6696.82
6892.82
7056.1
7187.08
7287.59
7359.71
7403.87
7420.76
7413.65
7384.81
7335.72
7267.44
7180.84
7076.64
6955.49
6818.02
6665.04
6497.31
6315.6
6120.91
5914.56
5698.09
5473.09
5241.33
5004.73
4765.26
4524.79
4285.14
4048.02
3814.99
3587.4
3366.4
3152.96
2947.85
2751.63
2564.7
2387.27
2219.46
2061.23
1912.45
1772.91
1642.34
1520.42
1406.77
1301.01
1202.73
1111.52
1026.98
948.685
876.242
809.264
747.379
690.232
637.483
588.814
543.924
502.528
464.363
429.18
396.749
366.857
339.303
313.905
290.491
268.904
248.997
230.638
213.701
198.074
183.651
170.336
158.043
146.689
136.202
126.514
117.563
109.293
101.651
94.5909
88.0671
82.0389
76.4682
71.3195
66.5597
62.1578
58.085
54.3144
50.8212
47.5822
44.576
41.7828
39.1838
36.7629
34.5012
32.3954
30.4798
0.766249
0.597267
0.472913
0.379727
0.308832
0.254121
0.211357
0.177583
0.150789
0.129863
0.115035
0.109743
0.126506
0.203007
0.450471
1.20608
3.41853
9.36676
23.5651
53.3535
108.534
199.693
335.61
521.139
755.876
1034.23
1346.73
1682.48
2030.86
2383.51
2733.33
3074.06
3400.65
3709.31
3997.37
4264.36
4508.61
4728.64
4923.79
5094.24
5241.76
5366.69
5467.57
5545.01
5600.06
5631.78
5641.17
5630.19
5600.03
5551.42
5484.98
5401.42
5301.49
5186.09
5056.37
4913.58
4759.03
4594.23
4420.91
4240.81
4055.66
3867.22
3677.2
3487.21
3298.71
3112.99
2931.24
2754.44
2583.38
2418.72
2260.92
2110.35
1967.2
1831.58
1703.48
1582.84
1469.5
1363.26
1263.89
1171.1
1084.61
1004.1
929.268
859.779
795.324
735.589
680.273
629.083
581.738
537.972
497.529
460.172
425.673
393.821
364.417
337.276
312.225
289.104
267.762
248.062
229.875
213.083
197.576
183.254
170.023
157.799
146.503
136.063
126.414
117.496
109.253
101.634
94.5927
88.0847
82.0699
76.5104
71.3712
66.6192
62.2238
58.1562
54.3897
50.8996
47.6627
44.6578
41.865
39.2656
36.8438
34.5804
32.4732
30.5555
0.765645
0.597034
0.473295
0.380607
0.310013
0.255441
0.21268
0.178762
0.151559
0.129519
0.111505
0.0966956
0.0845557
0.0749331
0.068479
0.0680883
0.0831483
0.141295
0.324598
0.879492
2.48206
6.71161
16.6269
37.1455
74.8341
136.886
229.475
356.241
517.415
710.059
928.714
1166.62
1416.92
1673.43
1930.78
2184.94
2432.34
2669.8
2894.78
3105.31
3300.51
3479.69
3641.53
3785.12
3910.29
4018.38
4108.19
4178.66
4229.93
4261.51
4272.86
4265.6
4240.8
4199.21
4141.6
4068.94
3982.29
3882.92
3772.27
3651.81
3523.03
3387.5
3246.86
3102.63
2956.28
2809.15
2662.52
2517.52
2375.12
2236.13
2101.26
1971.07
1845.96
1726.27
1612.18
1503.82
1401.22
1304.36
1213.15
1127.45
1047.1
971.916
901.674
836.15
775.11
718.314
665.524
616.503
571.019
528.846
489.769
453.578
420.078
389.078
360.401
333.88
309.358
286.686
265.727
246.352
228.441
211.883
196.574
182.42
169.331
157.227
146.032
135.678
126.102
117.246
109.055
101.481
94.4779
88.0025
82.0156
76.4801
71.3613
66.6268
62.2462
58.1911
54.4351
50.9535
47.7234
44.7237
41.9347
39.3379
36.9175
34.6544
32.5476
30.6289
0.765334
0.596952
0.473636
0.381337
0.311004
0.256569
0.213851
0.179909
0.152637
0.1305
0.112362
0.0973727
0.084888
0.0744159
0.0655812
0.0581095
0.0518421
0.0468231
0.0436028
0.0442196
0.0550374
0.0946501
0.218237
0.59049
1.65996
4.47126
11.0536
24.691
49.8207
91.4328
154.036
240.612
351.97
486.654
641.296
811.58
992.985
1181.22
1372.44
1563.26
1750.87
1933.06
2107.74
2273.05
2427.5
2570.49
2701
2817.79
2920.01
3007.88
3081.25
3138.29
3178.75
3202.11
3207.98
3197.85
3172.8
3133.74
3081.7
3017.83
2943.34
2859.61
2768.03
2669.98
2566.78
2459.75
2350.17
2239.19
2127.85
2017.09
1907.75
1800.54
1696.06
1594.77
1497.07
1403.25
1313.51
1227.99
1146.75
1069.8
997.125
928.638
864.241
803.806
747.192
694.24
644.782
598.648
555.661
515.646
478.433
443.851
411.737
381.931
354.282
328.645
304.883
282.864
262.465
243.571
226.072
209.867
194.86
180.964
168.097
156.182
145.15
134.935
125.479
116.725
108.622
101.124
94.1861
87.7673
81.8292
76.3359
71.2536
66.5506
62.1971
58.1652
54.4288
50.9637
47.7474
44.759
41.979
39.3891
36.9739
34.7144
32.6107
30.6933
0.765165
0.596912
0.473853
0.381818
0.311686
0.257377
0.214721
0.180791
0.153496
0.131312
0.113114
0.0980579
0.0855025
0.0749566
0.066039
0.0584514
0.0519583
0.0463737
0.0415516
0.0373859
0.0338254
0.0309321
0.0290705
0.0295125
0.0361783
0.0605181
0.13649
0.365477
1.02531
2.77142
6.90217
15.5727
31.7929
59.0885
100.828
159.497
236.179
330.39
440.254
562.906
695.159
833.971
976.549
1120.33
1262.98
1402.62
1537.58
1666.23
1787.09
1899.14
2001.6
2093.14
2172.75
2240.39
2295.77
2337.4
2365.09
2378.37
2377.55
2363.97
2338.71
2302.76
2257.2
2203.16
2141.77
2074.22
2001.68
1925.25
1845.93
1764.7
1682.44
1599.95
1517.93
1436.96
1357.58
1280.2
1205.18
1132.79
1063.23
996.643
933.131
872.738
815.472
761.307
710.196
662.067
616.83
574.383
534.614
497.405
462.635
430.177
399.91
371.708
345.45
321.02
298.303
277.189
257.573
239.356
222.443
206.744
192.174
178.656
166.114
154.481
143.692
133.688
124.413
115.816
107.851
100.471
93.6364
87.3072
81.4471
76.0217
70.9983
66.3465
62.0373
58.0436
54.3401
50.9032
47.7108
44.7424
41.979
39.4027
36.9984
34.7474
32.6509
30.7381
0.765068
0.596894
0.473998
0.382148
0.312173
0.257976
0.215387
0.181486
0.15419
0.131985
0.113752
0.0986509
0.0860467
0.0754503
0.0664825
0.0588462
0.0523063
0.0466755
0.0418032
0.0375676
0.0338697
0.0306292
0.0277816
0.02528
0.0231048
0.0212972
0.0200663
0.0201278
0.0236867
0.0371906
0.0796774
0.208195
0.582207
1.58941
4.02574
9.26604
19.3188
36.6673
63.8706
103.023
155.319
220.859
298.697
387.045
483.653
586.238
692.666
800.949
909.199
1015.73
1119.1
1217.86
1310.61
1396.35
1474.26
1543.16
1602.23
1651.53
1690.56
1718.43
1735.21
1740.59
1735.3
1720.52
1697.22
1666.32
1628.75
1585.46
1537.38
1485.4
1430.41
1373.19
1314.45
1254.85
1194.97
1135.35
1076.43
1018.57
962.08
907.232
854.222
803.203
754.281
707.528
662.988
620.673
580.572
542.653
506.871
473.168
441.476
411.719
383.818
357.688
333.242
310.395
289.06
269.152
250.589
233.288
217.173
202.169
188.205
175.213
163.13
151.896
141.454
131.752
122.741
114.375
106.61
99.4059
92.7243
86.529
80.786
75.4629
70.529
65.9553
61.7141
57.7795
54.1273
50.7346
47.5802
44.6442
41.9083
39.3549
36.9698
34.7344
32.6514
30.7483
0.765011
0.596887
0.474096
0.382372
0.312514
0.258409
0.215881
0.182016
0.154734
0.132524
0.114273
0.0991461
0.0865103
0.0758792
0.0668755
0.0592033
0.0526285
0.0469642
0.0420603
0.0377951
0.0340694
0.0308017
0.027925
0.0253833
0.0231302
0.0211271
0.0193425
0.0177529
0.0163483
0.0151493
0.0142618
0.0140487
0.0156389
0.0223518
0.0439333
0.109661
0.303583
0.839014
2.17735
5.16082
11.0923
21.6887
38.8641
64.369
99.4184
144.464
199.154
262.431
332.733
408.303
487.431
568.479
649.875
730.177
808.11
882.38
951.79
1015.53
1072.83
1122.8
1164.87
1199.31
1225.57
1243.25
1252.59
1253.46
1246.65
1233.12
1213.67
1189.03
1159.93
1127.1
1091.2
1052.89
1012.76
971.367
929.19
886.652
844.139
801.989
760.481
719.847
680.274
641.918
604.901
569.311
535.21
502.634
471.6
442.11
414.151
387.698
362.717
339.163
316.99
296.144
276.57
258.212
241.009
224.904
209.838
195.754
182.597
170.312
158.849
148.158
138.193
128.909
120.265
112.22
104.738
97.7821
91.3185
85.3147
79.7399
74.5646
69.7603
65.3002
61.1585
57.311
53.7347
50.408
47.3109
44.4243
41.7308
39.2136
36.8591
34.6494
32.5887
30.7026
0.764976
0.596884
0.474162
0.382526
0.312754
0.258721
0.216248
0.182419
0.155155
0.132951
0.114695
0.0995547
0.0868998
0.076246
0.0672174
0.0595192
0.0529182
0.0472283
0.0422997
0.0380109
0.034263
0.0309747
0.0280786
0.0255189
0.0232491
0.0212299
0.0194283
0.0178163
0.0163702
0.0150699
0.0138985
0.0128431
0.0118971
0.0110682
0.0104037
0.0100697
0.0105906
0.0135264
0.0234386
0.0540019
0.145579
0.406108
1.08463
2.66853
5.96713
12.1276
22.5388
38.6124
61.4925
91.8186
129.616
174.315
224.853
279.881
337.994
397.804
457.988
517.364
574.85
629.383
680.008
726.145
767.177
802.495
831.772
855.333
872.766
883.939
889.102
888.299
882.113
871.284
856.432
838.103
816.824
793.105
767.423
740.209
711.875
682.792
653.278
623.612
594.037
564.768
535.989
507.847
480.462
453.928
428.319
403.692
380.083
357.516
336
315.531
296.102
277.693
260.282
243.841
228.336
213.734
199.997
187.088
174.968
163.599
152.945
142.969
133.634
124.907
116.754
109.143
102.044
95.4264
89.2614
83.5213
78.1792
73.209
68.5857
64.2849
60.2835
56.5592
53.091
49.859
46.8446
44.03
41.399
38.9356
36.6274
34.4574
32.431
30.5721
0.764954
0.596884
0.474209
0.382633
0.312924
0.258946
0.216518
0.182721
0.155479
0.133285
0.115031
0.0998857
0.0872207
0.076553
0.067508
0.0597919
0.0531722
0.0474634
0.042516
0.0382091
0.0344437
0.0311386
0.0282268
0.0256524
0.0233688
0.0213368
0.0195233
0.0179003
0.016444
0.0151339
0.0139525
0.0128848
0.0119177
0.0110402
0.0102425
0.00951702
0.00885891
0.00826964
0.00776747
0.00742061
0.0074499
0.0085243
0.0126039
0.0255178
0.0648218
0.180151
0.49484
1.27081
2.98044
6.35047
12.3388
22.0198
36.3846
56.1269
81.4978
112.257
147.726
186.906
228.668
271.857
315.375
358.285
399.731
438.901
475.085
507.877
536.836
561.573
581.903
598.081
609.924
617.37
620.621
619.833
615.296
607.567
597.11
584.318
569.554
553.169
535.484
516.797
497.371
477.454
457.264
436.984
416.774
396.771
377.091
357.836
339.085
320.9
303.33
286.41
270.164
254.61
239.755
225.598
212.135
199.353
187.24
175.776
164.944
154.721
145.086
136.015
127.486
119.475
111.958
104.912
98.3148
92.1424
86.3727
80.9832
75.952
71.2574
66.8781
62.7933
58.9829
55.4273
52.108
49.0071
46.108
43.3946
40.8521
38.4658
36.2246
34.1127
32.1368
30.3187
0.76494
0.596885
0.474242
0.382708
0.313044
0.259109
0.216716
0.182948
0.155725
0.133544
0.115295
0.10015
0.0874813
0.0768061
0.0677511
0.0600233
0.0533908
0.0476684
0.0427073
0.0383866
0.0346077
0.0312896
0.0283653
0.025779
0.0234841
0.0214415
0.019618
0.0179857
0.0165207
0.0152026
0.0140137
0.0129391
0.0119656
0.0110819
0.0102782
0.00954588
0.00887737
0.00826613
0.00770644
0.00719351
0.0067238
0.00629639
0.00591701
0.00561057
0.005461
0.00572969
0.00719216
0.0121357
0.0274777
0.0737241
0.20593
0.551965
1.36465
3.06949
6.27911
11.7479
20.257
32.4513
48.6939
68.9794
92.931
119.884
148.988
179.332
210.036
240.356
269.643
297.306
322.843
345.951
366.343
383.767
398.101
409.468
417.925
423.38
425.961
425.882
423.205
418.304
411.522
403.147
393.43
382.599
370.874
358.452
345.511
332.213
318.701
305.102
291.525
278.061
264.789
251.773
239.068
226.719
214.762
203.221
192.114
181.455
171.25
161.501
152.207
143.365
134.968
127.007
119.47
112.348
105.626
99.2908
93.328
87.7225
82.4585
77.52
72.8908
68.5542
64.4936
60.6923
57.1338
53.8019
50.681
47.7561
45.0127
42.4369
40.0156
37.7359
35.588
33.5579
31.6533
29.8941
0.764931
0.596886
0.474265
0.382761
0.31313
0.259226
0.216862
0.183116
0.155911
0.133742
0.115501
0.10036
0.0876901
0.0770118
0.0679513
0.0602163
0.0535754
0.0478438
0.0428729
0.0385422
0.0347533
0.0314253
0.0284913
0.0258956
0.0235917
0.0215404
0.0197088
0.0180688
0.0165966
0.0152716
0.0140764
0.0129958
0.0120168
0.0111279
0.0103194
0.00958261
0.00890996
0.00829482
0.00773137
0.00721445
0.00673952
0.00630254
0.00589996
0.0055287
0.00518626
0.00487117
0.00458444
0.00433393
0.00414826
0.00411997
0.00453051
0.00620958
0.011637
0.0283364
0.0779332
0.21543
0.560805
1.33664
2.8952
5.71361
10.342
17.3069
26.993
39.5493
54.8468
72.5107
91.9817
112.596
133.681
154.648
174.995
194.292
212.186
228.436
242.871
255.318
265.675
273.936
280.31
284.693
287.138
287.771
286.747
284.129
280.172
275.09
269.065
262.254
254.801
246.835
238.479
229.84
221.015
212.089
203.137
194.225
185.407
176.729
168.23
159.941
151.887
144.089
136.564
129.322
122.372
115.717