/*--------------------------------*- C++ -*----------------------------------*\
| =========                 |                                                 |
| \\      /  F ield         | OpenFOAM: The Open Source CFD Toolbox           |
|  \\    /   O peration     | Version:  1.7.0                                 |
|   \\  /    A nd           | Web:      www.OpenFOAM.com                      |
|    \\/     M anipulation  |                                                 |
\*---------------------------------------------------------------------------*/
FoamFile
{
    version     2.0;
    format      ascii;
    class       volScalarField;
    location    "0.33";
    object      k;
}
// * * * * * * * * * * * * * * * * * * * * * * * * * * * * * * * * * * * * * //

dimensions      [0 2 -2 0 0 0 0];

internalField   nonuniform List<scalar> 
5460
(
2.80737
2.80992
2.8122
2.81437
2.8165
2.81867
2.82096
2.8234
2.82605
2.82893
2.83209
2.83556
2.83938
2.84362
2.84834
2.85365
2.85968
2.86663
2.87474
2.88438
2.89601
2.91028
2.92804
2.9504
2.97883
3.01524
3.06212
3.12267
3.20098
3.30228
3.43308
3.60144
3.81699
4.09084
4.435
4.86129
5.3796
5.99554
6.70816
7.50828
8.37825
9.29338
10.2247
11.1421
12.0178
12.8281
13.5551
14.1866
14.7158
15.1409
15.4634
15.6879
15.8207
15.8693
15.8418
15.7465
15.5915
15.3847
15.1337
14.8456
14.5268
14.1835
13.8209
13.4438
13.0564
12.6624
12.2647
11.866
11.4686
11.0745
10.6853
10.3024
9.9269
9.55974
9.20163
8.8531
8.51454
8.18623
7.86834
7.56095
7.26408
6.97766
6.7016
6.43574
6.1799
5.93385
5.69737
5.47019
5.25206
5.04268
4.84178
4.64907
4.46428
4.2871
4.11726
3.95448
3.79849
3.64902
3.50581
3.36861
3.23716
3.11122
2.99057
2.87496
2.76419
2.65801
2.55622
2.4586
2.36493
2.27501
2.18864
2.10562
2.02578
1.94895
1.875
1.8038
1.73526
1.66931
1.6059
1.54502
1.48664
1.43079
1.37745
1.32666
1.27841
1.2327
1.18953
1.14885
1.11078
1.07653
2.88963
2.89075
2.89224
2.89405
2.89611
2.89844
2.90102
2.90387
2.907
2.91044
2.91423
2.91839
2.92299
2.9281
2.93383
2.94034
2.94782
2.95655
2.96693
2.97945
2.99481
3.01389
3.03786
3.06824
3.10699
3.15659
3.22023
3.3019
3.4066
3.54042
3.71074
3.92613
4.1962
4.53107
4.94046
5.43239
6.01159
6.67788
7.42505
8.24036
9.10515
9.99629
10.8883
11.7558
12.5755
13.3277
13.9975
14.5747
15.0541
15.4341
15.7166
15.906
16.0082
16.0303
15.9799
15.865
15.6931
15.472
15.2087
14.91
14.5823
14.2312
13.8621
13.4794
13.0872
12.689
12.2878
11.8861
11.4861
11.0897
10.6986
10.314
9.93708
9.56867
9.20948
8.86
8.52062
8.19159
7.87307
7.56514
7.26779
6.98095
6.70453
6.43835
6.18222
5.93592
5.69922
5.47185
5.25353
5.044
4.84297
4.65014
4.46524
4.28796
4.11804
3.95519
3.79913
3.6496
3.50633
3.36908
3.23758
3.11161
2.99092
2.87528
2.76448
2.65828
2.55646
2.45882
2.36513
2.27519
2.1888
2.10576
2.0259
1.94906
1.87509
1.80388
1.73533
1.66937
1.60596
1.54507
1.48669
1.43083
1.3775
1.3267
1.27845
1.23274
1.18957
1.14889
1.11082
1.07657
3.05578
3.05792
3.06046
3.06336
3.06658
3.0701
3.07395
3.07815
3.0827
3.08766
3.09307
3.09902
3.10561
3.11301
3.12144
3.13119
3.14269
3.15649
3.1733
3.1941
3.22009
3.25285
3.29438
3.34718
3.41438
3.49984
3.60825
3.74522
3.91727
4.13178
4.39669
4.72003
5.10915
5.56981
6.1051
6.71456
7.39361
8.13342
8.92134
9.7416
10.5763
11.4066
12.2135
12.9792
13.6878
14.3262
14.8844
15.356
15.7377
16.0291
16.2326
16.3521
16.3931
16.3619
16.2654
16.1105
15.9044
15.6538
15.3652
15.0448
14.6985
14.3316
13.9488
13.5545
13.1523
12.7455
12.3368
11.9287
11.5233
11.1222
10.7269
10.3388
9.95881
9.58774
9.22624
8.87475
8.53362
8.20307
7.88322
7.57412
7.27575
6.98803
6.71081
6.44394
6.18721
5.94037
5.7032
5.47541
5.25672
5.04686
4.84554
4.65245
4.46731
4.28984
4.11973
3.95671
3.8005
3.65084
3.50746
3.3701
3.23851
3.11244
2.99168
2.87597
2.7651
2.65884
2.55698
2.45928
2.36555
2.27557
2.18914
2.10607
2.02618
1.9493
1.87531
1.80407
1.7355
1.66952
1.60609
1.54519
1.4868
1.43093
1.37758
1.32678
1.27853
1.23282
1.18965
1.14897
1.11091
1.07666
3.30225
3.30605
3.3105
3.31545
3.32079
3.32654
3.33271
3.33932
3.34643
3.35414
3.36258
3.37194
3.3825
3.39463
3.40886
3.42587
3.44656
3.47209
3.50394
3.54397
3.59453
3.65847
3.7393
3.84122
3.96919
4.12889
4.3267
4.56941
4.86384
5.2163
5.63184
6.11347
6.66145
7.27283
7.9414
8.65795
9.41091
10.1871
10.9725
11.7529
12.5144
13.2439
13.9293
14.56
15.1267
15.6223
16.0415
16.3812
16.6404
16.82
16.9228
16.9525
16.9142
16.8134
16.6562
16.4485
16.1965
15.9062
15.5834
15.2335
14.8619
14.4731
14.0715
13.6609
13.2448
12.8259
12.4069
11.9898
11.5766
11.1688
10.7677
10.3746
9.99021
9.61535
9.25054
8.89618
8.55253
8.21979
7.89802
7.58724
7.2874
6.99838
6.72002
6.45215
6.19453
5.94692
5.70905
5.48064
5.26142
5.05108
4.84933
4.65586
4.47038
4.2926
4.12222
3.95896
3.80254
3.65268
3.50913
3.37161
3.23988
3.11369
2.99281
2.877
2.76603
2.65969
2.55774
2.45998
2.36618
2.27613
2.18965
2.10652
2.02658
1.94966
1.87563
1.80435
1.73575
1.66974
1.60629
1.54536
1.48695
1.43107
1.37772
1.32691
1.27865
1.23294
1.18977
1.14909
1.11104
1.0768
3.62312
3.62975
3.63724
3.64535
3.65396
3.66311
3.67287
3.68333
3.69465
3.70711
3.72106
3.73704
3.75573
3.77806
3.80523
3.83877
3.8806
3.9331
3.99919
4.08235
4.18673
4.31713
4.47897
4.67818
4.92096
5.21338
5.56089
5.96764
6.4359
6.96541
7.55319
8.19345
8.87798
9.5967
10.3384
11.0913
11.8438
12.5848
13.3037
13.9909
14.6377
15.236
15.7791
16.2611
16.6773
17.0243
17.3
17.5038
17.6363
17.6995
17.6964
17.6309
17.5075
17.3313
17.1074
16.8412
16.5381
16.2031
15.8415
15.4579
15.057
14.6428
14.2193
13.7897
13.3571
12.924
12.4925
12.0647
11.6422
11.2263
10.8182
10.4189
10.0292
9.64973
9.28087
8.92297
8.57623
8.24077
7.91663
7.60377
7.30209
7.01145
6.73168
6.46255
6.20382
5.95523
5.71649
5.48732
5.26741
5.05646
4.85417
4.66022
4.47431
4.29615
4.12543
3.96186
3.80516
3.65506
3.51127
3.37356
3.24164
3.11529
2.99427
2.87832
2.76724
2.66078
2.55873
2.46087
2.36699
2.27686
2.1903
2.10711
2.02711
1.95013
1.87604
1.80472
1.73607
1.67002
1.60653
1.54558
1.48715
1.43125
1.37789
1.32707
1.27881
1.2331
1.18993
1.14926
1.11121
1.07697
4.01162
4.02201
4.03378
4.04646
4.05991
4.07429
4.08982
4.10681
4.12579
4.1475
4.17295
4.20347
4.24075
4.2869
4.34454
4.41683
4.50751
4.62096
4.76211
4.93644
5.14975
5.40787
5.71628
6.0795
6.50062
6.98061
7.51803
8.10884
8.74657
9.4228
10.1278
10.8512
11.5826
12.3121
13.0307
13.7299
14.4025
15.0419
15.6422
16.1982
16.7052
17.1587
17.555
17.8909
18.1641
18.3729
18.5169
18.5964
18.613
18.5691
18.468
18.3133
18.1096
17.8612
17.573
17.2498
16.8961
16.5166
16.1158
15.698
15.267
14.8266
14.3802
13.9306
13.4805
13.0322
12.5875
12.1481
11.7155
11.2908
10.875
10.469
10.0734
9.6888
9.31544
8.95358
8.60338
8.26488
7.93805
7.62283
7.31907
7.02661
6.74521
6.47465
6.21465
5.96494
5.7252
5.49514
5.27444
5.06279
4.85987
4.66536
4.47895
4.30034
4.12921
3.96529
3.80827
3.65787
3.51383
3.37587
3.24375
3.11721
2.99601
2.8799
2.76867
2.66209
2.55992
2.46195
2.36796
2.27774
2.19109
2.10781
2.02773
1.95069
1.87653
1.80515
1.73645
1.67036
1.60683
1.54585
1.48739
1.43147
1.37809
1.32727
1.279
1.23329
1.19012
1.14945
1.11142
1.07719
4.4567
4.47334
4.49204
4.51212
4.53369
4.55733
4.58381
4.6142
4.65
4.69323
4.7464
4.81255
4.89536
4.9991
5.12865
5.28937
5.48698
5.72732
6.01588
6.35741
6.75526
7.21087
7.72335
8.28923
8.90261
9.55557
10.2388
10.9423
11.656
12.3706
13.0776
13.7696
14.4402
15.0841
15.697
16.2752
16.8155
17.315
17.7713
18.1819
18.5442
18.856
19.1149
19.3189
19.4664
19.5564
19.5887
19.564
19.4838
19.3505
19.1672
18.9374
18.6653
18.355
18.0109
17.6374
17.2388
16.8193
16.3829
15.9335
15.4746
15.0096
14.5414
14.0727
13.6058
13.1427
12.685
12.2342
11.7915
11.358
10.9345
10.5217
10.1201
9.73019
9.35218
8.98625
8.63244
8.29076
7.96113
7.64343
7.33748
7.04307
6.75996
6.48787
6.22651
5.97559
5.73478
5.50376
5.28221
5.06979
4.86619
4.67107
4.48412
4.30501
4.13345
3.96912
3.81175
3.66103
3.5167
3.37848
3.24612
3.11937
2.99797
2.88169
2.7703
2.66357
2.56126
2.46317
2.36906
2.27873
2.19198
2.10861
2.02844
1.95132
1.87709
1.80564
1.73688
1.67074
1.60717
1.54614
1.48766
1.43171
1.37832
1.32749
1.27922
1.2335
1.19034
1.14968
1.11165
1.07744
4.95071
4.97786
5.00875
5.04269
5.08074
5.12483
5.17735
5.24131
5.32054
5.41965
5.54388
5.69898
5.89108
6.12636
6.41063
6.74878
7.14421
7.5983
8.10989
8.67514
9.28759
9.93872
10.6186
11.3166
12.0226
12.7273
13.4223
14.1011
14.758
15.3887
15.9901
16.5597
17.0958
17.5969
18.0621
18.4904
18.8811
19.2333
19.546
19.818
20.0478
20.2338
20.3743
20.4676
20.5121
20.5068
20.4511
20.3455
20.1909
19.9894
19.7435
19.4564
19.1319
18.7738
18.3862
17.9732
17.5388
17.0869
16.6213
16.1458
15.6635
15.1775
14.6907
14.2054
13.7237
13.2474
12.778
12.3169
11.865
11.4233
10.9926
10.5734
10.1662
9.77133
9.38889
9.01903
8.66174
8.31697
7.9846
7.66446
7.35634
7.06
6.77517
6.50155
6.23883
5.98669
5.74479
5.51279
5.29037
5.07717
4.87287
4.67712
4.48959
4.30998
4.13796
3.97322
3.81547
3.66442
3.51978
3.38129
3.24868
3.1217
3.0001
2.88363
2.77207
2.66517
2.56272
2.46449
2.37026
2.27981
2.19295
2.10948
2.02922
1.952
1.87769
1.80617
1.73735
1.67115
1.60753
1.54646
1.48795
1.43198
1.37857
1.32772
1.27945
1.23374
1.19058
1.14993
1.11192
1.07772
5.49043
5.54082
5.59949
5.66712
5.74796
5.84763
5.97222
6.12852
6.32388
6.56566
6.86059
7.21405
7.62942
8.10737
8.64543
9.23786
9.87609
10.5495
11.2463
11.9548
12.664
13.3643
14.0481
14.7093
15.3438
15.9488
16.5224
17.0637
17.5722
18.0477
18.4906
18.901
19.2795
19.6262
19.9414
20.2252
20.4775
20.698
20.886
21.0408
21.1611
21.2455
21.2923
21.2998
21.2662
21.1902
21.0708
20.9077
20.7014
20.4531
20.165
19.8395
19.48
19.0899
18.6729
18.233
17.7738
17.2994
16.8131
16.3187
15.8192
15.3177
14.8167
14.3186
13.8254
13.3386
12.8599
12.3903
11.9308
11.4824
11.0456
10.6209
10.2089
9.80959
9.42326
9.04991
8.68951
8.34195
8.00709
7.68472
7.37461
7.07648
6.79005
6.51499
6.25098
5.99768
5.75474
5.52181
5.29854
5.08459
4.8796
4.68323
4.49516
4.31504
4.14256
3.97742
3.81929
3.6679
3.52296
3.38419
3.25133
3.12412
3.00231
2.88565
2.77391
2.66685
2.56425
2.46588
2.37152
2.28095
2.19397
2.11039
2.03003
1.95272
1.87832
1.80672
1.73783
1.67157
1.6079
1.54679
1.48824
1.43225
1.37882
1.32797
1.2797
1.23399
1.19084
1.1502
1.11221
1.07803
6.0883
6.20161
6.34109
6.51168
6.72358
6.98741
7.3123
7.70503
8.16916
8.70421
9.30481
9.96103
10.6595
11.3848
12.1213
12.8547
13.5731
14.2679
14.9332
15.5652
16.1623
16.7238
17.25
17.7419
18.2008
18.6281
19.0253
19.3936
19.7342
20.048
20.3359
20.5987
20.8371
21.0514
21.2419
21.4084
21.5508
21.6688
21.7616
21.8284
21.8678
21.8784
21.8585
21.8061
21.7194
21.5967
21.4365
21.2381
21.0013
20.7266
20.4153
20.0696
19.6921
19.2857
18.8538
18.4001
17.9282
17.4418
16.9443
16.4394
15.93
15.4193
14.9097
14.4036
13.903
13.4094
12.9243
12.4488
11.9841
11.5307
11.0894
10.6607
10.245
9.84236
9.45298
9.07687
8.71396
8.36413
8.02722
7.70299
7.3912
7.09155
6.80374
6.52744
6.2623
6.00798
5.76412
5.53036
5.30633
5.09169
4.88607
4.68914
4.50055
4.31997
4.14707
3.98153
3.82306
3.67135
3.52611
3.38708
3.25397
3.12654
3.00452
2.88768
2.77576
2.66854
2.56579
2.46728
2.37279
2.28209
2.195
2.11131
2.03084
1.95344
1.87895
1.80728
1.73831
1.67199
1.60826
1.54712
1.48853
1.43252
1.37908
1.32822
1.27994
1.23424
1.19111
1.15048
1.11252
1.07836
6.87987
7.22507
7.6242
8.09436
8.64982
9.29164
10.0085
10.7807
11.5845
12.3963
13.1938
13.9597
14.6825
15.3563
15.9797
16.5543
17.0838
17.5723
18.0238
18.4416
18.8287
19.1874
19.5198
19.8281
20.114
20.379
20.6243
20.8507
21.0587
21.2488
21.4215
21.5771
21.7158
21.8375
21.942
22.0289
22.0978
22.1481
22.179
22.1894
22.1779
22.1429
22.0828
21.9956
21.8794
21.7322
21.5523
21.3385
21.0902
20.8071
20.4901
20.1405
19.7605
19.3524
18.9194
18.4647
17.9917
17.504
17.005
16.4983
15.9869
15.4739
14.9619
14.4533
13.9499
13.4536
12.9658
12.4877
12.0203
11.5644
11.1207
10.6897
10.2718
9.86711
9.47581
9.0979
8.73332
8.38195
8.04359
7.71804
7.40502
7.10425
6.8154
6.53814
6.27213
6.017
5.7724
5.53795
5.3133
5.09809
4.89195
4.69454
4.50551
4.32452
4.15125
3.98538
3.82659
3.67459
3.5291
3.38982
3.2565
3.12886
3.00665
2.88963
2.77756
2.67019
2.56729
2.46864
2.37402
2.28321
2.196
2.1122
2.03163
1.95413
1.87956
1.8078
1.73877
1.67238
1.60861
1.54742
1.48881
1.43277
1.37932
1.32846
1.28018
1.23449
1.19138
1.15076
1.11283
1.0787
7.89122
8.83363
9.8014
10.7955
11.8127
12.8141
13.7553
14.6089
15.367
16.0327
16.6151
17.1266
17.5802
17.9874
18.357
18.6961
19.0106
19.3042
19.579
19.8363
20.0773
20.3028
20.5137
20.711
20.8958
21.0683
21.2286
21.3769
21.5129
21.6365
21.7481
21.8474
21.9344
22.0086
22.0694
22.1164
22.1489
22.1664
22.1679
22.1522
22.1181
22.0639
21.9883
21.8892
21.7647
21.6129
21.4318
21.2201
20.9766
20.7009
20.393
20.0539
19.6849
19.2883
18.8664
18.4222
17.9591
17.4802
16.9892
16.4892
15.9837
15.4755
14.9675
14.4619
13.961
13.4665
12.9799
12.5026
12.0357
11.58
11.1362
10.705
10.2867
9.88153
9.48967
9.11115
8.74593
8.39389
8.05488
7.72867
7.415
7.11361
6.82416
6.54633
6.27976
6.02412
5.77902
5.54412
5.31903
5.10341
4.89689
4.69912
4.50976
4.32846
4.15489
3.98875
3.82972
3.67749
3.53177
3.3923
3.25878
3.13097
3.0086
2.89143
2.77921
2.67171
2.56868
2.46992
2.37518
2.28425
2.19694
2.11303
2.03237
1.95478
1.88012
1.80829
1.73918
1.67274
1.60892
1.54769
1.48905
1.433
1.37953
1.32867
1.28041
1.23473
1.19163
1.15105
1.11315
1.07905
2.86441
5.37099
7.90317
10.0822
11.8255
13.1691
14.2073
15.0171
15.6547
16.1898
16.6608
17.0876
17.4804
17.8447
18.1838
18.5007
18.7977
19.0756
19.335
19.577
19.8031
20.0143
20.2118
20.3968
20.5703
20.7322
20.8823
21.0208
21.1474
21.2624
21.3661
21.4585
21.5393
21.608
21.6642
21.7073
21.7372
21.7531
21.7543
21.7397
21.708
21.6582
21.5887
21.4979
21.3841
21.2451
21.0794
20.8853
20.6616
20.4072
20.122
19.8063
19.4611
19.0878
18.6887
18.2664
17.8236
17.3636
16.8898
16.4054
15.9137
15.4178
14.9204
14.4241
13.931
13.4432
12.9623
12.4897
12.0267
11.5742
11.1331
10.704
10.2874
9.8836
9.49278
9.11504
8.75039
8.39876
8.06001
7.73395
7.42035
7.11893
6.82941
6.55147
6.28476
6.02894
5.78366
5.54855
5.32326
5.10743
4.9007
4.70272
4.51315
4.33165
4.1579
3.99157
3.83236
3.67996
3.53409
3.39446
3.2608
3.13285
3.01035
2.89306
2.78072
2.6731
2.56996
2.47108
2.37624
2.28521
2.19779
2.1138
2.03304
1.95536
1.88062
1.80871
1.73954
1.67304
1.60918
1.54791
1.48925
1.43318
1.37972
1.32886
1.28061
1.23496
1.19189
1.15133
1.11347
1.07941
0.0876306
0.350007
0.926936
1.86353
3.13545
4.65384
6.28515
7.9088
9.42242
10.752
11.9007
12.8936
13.7582
14.518
15.192
15.7861
16.309
16.7759
17.1978
17.5823
17.9347
18.2589
18.558
18.8342
19.089
19.3237
19.5393
19.7371
19.9178
20.0825
20.2322
20.3672
20.4874
20.5929
20.6835
20.7593
20.8203
20.8662
20.8965
20.9103
20.9067
20.8849
20.844
20.7824
20.6986
20.591
20.4579
20.2978
20.1093
19.8914
19.6433
19.3651
19.0572
18.7208
18.3574
17.9693
17.559
17.1294
16.6838
16.2252
15.757
15.2823
14.8038
14.3242
13.846
13.3711
12.9015
12.4387
11.9842
11.539
11.1041
10.6803
10.2682
9.8682
9.48059
9.10556
8.74318
8.39343
8.05624
7.73146
7.41891
7.11836
6.82952
6.55213
6.28585
6.03036
5.78533
5.55041
5.32525
5.10949
4.90281
4.70484
4.51526
4.33374
4.15994
3.99355
3.83428
3.68181
3.53586
3.39615
3.26241
3.13437
3.01179
2.89441
2.78198
2.67428
2.57106
2.47209
2.37716
2.28604
2.19853
2.11445
2.0336
1.95584
1.88103
1.80905
1.73982
1.67327
1.60936
1.54807
1.48939
1.43331
1.37985
1.32901
1.28079
1.23516
1.19213
1.15161
1.11381
1.07979
0.00241427
0.00682304
0.0263671
0.0882736
0.241276
0.5495
1.06981
1.82859
2.81081
3.95628
5.18744
6.43237
7.63926
8.77844
9.83747
10.8187
11.7179
12.5324
13.2698
13.939
14.5477
15.1031
15.6085
16.0646
16.4794
16.8585
17.2061
17.5254
17.8184
18.0869
18.3322
18.5555
18.7576
18.9395
19.1018
19.245
19.3699
19.4764
19.5643
19.6333
19.683
19.713
19.7227
19.7112
19.6772
19.6193
19.5363
19.4267
19.2894
19.123
18.9267
18.7003
18.4438
18.1578
17.8436
17.5028
17.1378
16.7511
16.3456
15.9243
15.4905
15.0471
14.5972
14.1434
13.6882
13.2339
12.7825
12.3358
11.8954
11.4627
11.0387
10.6244
10.2205
9.82764
9.44622
9.07651
8.71872
8.37291
8.0391
7.71722
7.40714
7.10869
6.82165
6.54577
6.28077
6.02637
5.78225
5.54809
5.32356
5.10834
4.90209
4.70448
4.51519
4.3339
4.16029
3.99405
3.83489
3.68251
3.53662
3.39695
3.26323
3.13521
3.01262
2.89523
2.78278
2.67504
2.57178
2.47276
2.37777
2.2866
2.19903
2.11487
2.03396
1.95613
1.88125
1.80921
1.73993
1.67334
1.6094
1.54809
1.4894
1.43334
1.3799
1.32908
1.28089
1.23531
1.19233
1.15187
1.11413
1.08018
0.00157381
0.00141146
0.00146088
0.0022139
0.00534148
0.0160819
0.0478418
0.126922
0.292733
0.588841
1.04801
1.6799
2.46778
3.37449
4.35271
5.36166
6.36916
7.35047
8.2901
9.17962
10.0153
10.7969
11.5281
12.211
12.8416
13.4229
13.959
14.4533
14.9094
15.3259
15.7059
16.0538
16.3726
16.6643
16.9301
17.1712
17.3882
17.5818
17.7525
17.9006
18.0262
18.1296
18.2105
18.2684
18.3022
18.3113
18.2948
18.2514
18.1801
18.0796
17.949
17.788
17.5962
17.3739
17.1219
16.8416
16.5347
16.2034
15.8504
15.4785
15.0906
14.6898
14.279
13.8609
13.4381
13.0132
12.5881
12.1651
11.7458
11.3318
10.9244
10.5248
10.1339
9.7524
9.38097
9.02003
8.66989
8.33077
8.00278
7.68597
7.3803
7.08567
6.80195
6.52895
6.26644
6.01418
5.77191
5.53935
5.3162
5.10216
4.89692
4.70018
4.51164
4.33098
4.15791
3.99213
3.83336
3.6813
3.53569
3.39625
3.26273
3.13487
3.01241
2.89511
2.78274
2.67506
2.57183
2.47284
2.37785
2.28666
2.19907
2.11489
2.03394
1.95607
1.88115
1.80908
1.73977
1.67316
1.60921
1.5479
1.48922
1.43318
1.37978
1.32901
1.28088
1.23537
1.19246
1.15207
1.11443
1.08056
0.00156124
0.00136173
0.00119716
0.0010674
0.000986426
0.0010162
0.00137578
0.00278668
0.00750972
0.0217115
0.0589028
0.142241
0.302563
0.570988
0.968371
1.49936
2.15178
2.89978
3.71098
4.55489
5.40735
6.25107
7.0751
7.87312
8.63805
9.36568
10.0541
10.7027
11.3126
11.8877
12.4252
12.9247
13.388
13.817
14.2137
14.576
14.9062
15.207
15.4802
15.7268
15.9473
16.1418
16.3107
16.4539
16.5711
16.662
16.726
16.7624
16.7701
16.748
16.6955
16.6119
16.4969
16.3502
16.1724
15.9644
15.7277
15.464
15.1755
14.8648
14.5347
14.1879
13.8272
13.4555
13.0754
12.6894
12.2999
11.909
11.5187
11.1308
10.7469
10.3682
9.99593
9.63107
9.27438
8.92648
8.58789
8.25896
7.93995
7.63105
7.33234
7.04383
6.76547
6.49716
6.23877
5.99012
5.751
5.5212
5.30045
5.08851
4.8851
4.68996
4.5028
4.32336
4.15134
3.98648
3.82849
3.67713
3.53211
3.39319
3.26012
3.13263
3.0105
2.89349
2.78135
2.67386
2.57079
2.47192
2.37703
2.28592
2.19838
2.11423
2.0333
1.95544
1.88053
1.80846
1.73916
1.67256
1.60863
1.54736
1.48873
1.43274
1.37941
1.32872
1.28067
1.23525
1.19244
1.15216
1.11464
1.08087
0.00155569
0.00135535
0.00119084
0.00105491
0.000941877
0.000847728
0.00077116
0.000717217
0.00070985
0.00083217
0.00135301
0.00312402
0.00864889
0.0241667
0.0621388
0.142342
0.289614
0.527715
0.87177
1.32392
1.87358
2.50111
3.18325
3.89914
4.63105
5.36507
6.09071
6.8002
7.488
8.15229
8.78997
9.39818
9.9753
10.5206
11.0348
11.5207
11.975
12.3973
12.7884
13.1493
13.4791
13.7771
14.0456
14.2859
14.4982
14.6823
14.8377
14.9641
15.0608
15.1271
15.1623
15.1659
15.1372
15.0759
14.9824
14.8571
14.701
14.5155
14.3025
14.0641
13.8028
13.5211
13.2216
12.907
12.58
12.243
11.8986
11.5491
11.1966
10.843
10.4902
10.1396
9.79266
9.45054
9.11423
8.78456
8.46224
8.14782
7.84173
7.5443
7.25577
6.97629
6.70593
6.4447
6.19256
5.94944
5.71521
5.4897
5.27276
5.06416
4.8637
4.67116
4.48629
4.30885
4.1386
3.9753
3.81868
3.66852
3.52456
3.38656
3.2543
3.12752
3.00601
2.88953
2.77786
2.67077
2.56804
2.46946
2.37481
2.2839
2.19652
2.1125
2.03168
1.95392
1.87909
1.80709
1.73785
1.67132
1.60747
1.54628
1.48774
1.43186
1.37863
1.32807
1.28015
1.23486
1.1922
1.15206
1.11469
1.08106
0.00155368
0.00135438
0.00119149
0.00105672
0.000944112
0.000849157
0.000768415
0.000699294
0.000639953
0.000589556
0.000549491
0.000527622
0.000551956
0.000712702
0.00129458
0.00317914
0.00884206
0.0241009
0.0599718
0.133147
0.263733
0.470278
0.764265
1.14751
1.6124
2.14452
2.72628
3.34075
3.97358
4.61444
5.25499
5.88804
6.50789
7.11028
7.69216
8.25282
8.78993
9.30136
9.78584
10.243
10.674
11.0783
11.4533
11.799
12.1155
12.4003
12.6533
12.8759
13.0682
13.2294
13.3588
13.4559
13.5202
13.5513
13.5492
13.5142
13.4469
13.3482
13.2196
13.0629
12.88
12.6732
12.4449
12.1975
11.9336
11.6557
11.3662
11.0675
10.7618
10.4513
10.1378
9.82315
9.50891
9.19643
8.88694
8.58149
8.28099
7.98618
7.6977
7.41605
7.14165
6.87479
6.61571
6.36454
6.12137
5.88623
5.6591
5.43991
5.22857
5.02496
4.82894
4.64032
4.45894
4.28459
4.11708
3.95621
3.80175
3.65349
3.51122
3.37472
3.24378
3.11818
2.9977
2.88212
2.77125
2.66485
2.56273
2.46468
2.37048
2.27995
2.19291
2.10918
2.0286
1.95105
1.8764
1.80458
1.7355
1.66913
1.60543
1.54439
1.48602
1.4303
1.37726
1.32687
1.27915
1.23405
1.19158
1.15163
1.11447
1.08103
0.00155271
0.0013537
0.00119157
0.00105757
0.000945582
0.000851054
0.000770543
0.000701412
0.000641611
0.000589532
0.000543914
0.000503805
0.000468629
0.000438541
0.000415679
0.000408316
0.000443703
0.000607236
0.00116636
0.00293592
0.00813227
0.0217821
0.0531349
0.115987
0.226908
0.4014
0.649496
0.973299
1.36715
1.82021
2.31903
2.85017
3.40189
3.96466
4.53067
5.09434
5.6508
6.19571
6.72563
7.23789
7.7311
8.20403
8.65439
9.0805
9.48158
9.85866
10.2091
10.5306
10.8223
11.0823
11.3082
11.5013
11.6616
11.7886
11.8819
11.9416
11.968
11.9616
11.9237
11.8555
11.7584
11.6344
11.4856
11.3142
11.1223
10.9124
10.6868
10.4479
10.198
9.93923
9.67361
9.40305
9.12928
8.85387
8.57821
8.30359
8.0311
7.7617
7.49622
7.23535
6.97971
6.72975
6.48587
6.24836
6.01746
5.79333
5.57606
5.36571
5.16228
4.96574
4.77603
4.59307
4.41673
4.24689
4.08341
3.92612
3.77486
3.62946
3.48974
3.35551
3.22659
3.10278
2.9839
2.86975
2.76013
2.65485
2.5537
2.45651
2.36306
2.2732
2.18673
2.1035
2.02336
1.9462
1.87191
1.8004
1.73161
1.66552
1.60209
1.54132
1.48321
1.42776
1.37499
1.32487
1.27742
1.2326
1.1904
1.15071
1.11383
1.08063
0.00155222
0.00135341
0.00119184
0.00105848
0.00094702
0.000852876
0.000772607
0.00070359
0.000643803
0.000591654
0.000545883
0.000505479
0.000469626
0.000437662
0.000409059
0.000383431
0.000360625
0.000341046
0.000326753
0.000324983
0.000358838
0.000499751
0.00097006
0.0024416
0.00672411
0.017901
0.0435024
0.0948427
0.185703
0.3294
0.535226
0.806164
1.13878
1.52481
1.9533
2.41323
2.89479
3.38976
3.8913
4.39362
4.89213
5.38326
5.86362
6.3302
6.78046
7.21325
7.62651
8.01772
8.38498
8.72791
9.04532
9.33321
9.59015
9.81396
10.0026
10.1573
10.2788
10.3671
10.4226
10.4464
10.4396
10.4036
10.3401
10.2509
10.138
10.0034
9.84949
9.67839
9.49228
9.2933
9.08353
8.86496
8.6394
8.40855
8.17396
7.93709
7.69922
7.46149
7.22492
6.9904
6.75871
6.53051
6.30636
6.08672
5.87197
5.66243
5.45834
5.25987
5.06714
4.88024
4.6992
4.52404
4.35471
4.19117
4.03333
3.88112
3.73442
3.59311
3.45705
3.32611
3.20014
3.07897
2.96245
2.8504
2.74266
2.63906
2.5394
2.44352
2.35125
2.26242
2.17686
2.09444
2.01503
1.93851
1.86479
1.79381
1.72552
1.65989
1.59689
1.53655
1.47885
1.4238
1.37143
1.32171
1.27464
1.2302
1.18837
1.14905
1.11253
1.07965
0.00155194
0.00135326
0.00119203
0.00105909
0.000948028
0.000854203
0.000774165
0.000705297
0.000645584
0.00059345
0.000547647
0.000507175
0.000471223
0.000439133
0.00041036
0.000384454
0.000361041
0.00033981
0.000320509
0.000302968
0.000287169
0.000273503
0.000263602
0.000262999
0.00028911
0.000395432
0.000748193
0.00185064
0.00506724
0.0135181
0.0330779
0.0728259
0.144263
0.259109
0.426312
0.649843
0.92821
1.2555
1.62314
2.02164
2.44225
2.8777
3.32192
3.7696
4.21601
4.65753
5.09093
5.51299
5.92076
6.31206
6.68503
7.03656
7.36417
7.66705
7.94381
8.19052
8.40597
8.58795
8.73589
8.85152
8.93585
8.98964
9.01406
9.0106
8.98085
8.92659
8.84982
8.75251
8.63661
8.50416
8.3572
8.19767
8.02742
7.84818
7.66163
7.46933
7.27271
7.07305
6.87152
6.66921
6.46706
6.2659
6.06645
5.86935
5.67515
5.4843
5.2972
5.11416
4.93542
4.7612
4.59164
4.42687
4.26693
4.11189
3.96173
3.81645
3.676
3.54033
3.40937
3.28302
3.16117
3.04373
2.93055
2.82152
2.71648
2.61529
2.5178
2.42386
2.33332
2.24602
2.16185
2.08066
2.00235
1.92682
1.854
1.78385
1.71631
1.65139
1.58907
1.52936
1.47227
1.41782
1.36602
1.31686
1.27034
1.22642
1.18511
1.14628
1.11025
1.0778
0.00155179
0.00135317
0.00119216
0.00105953
0.000948771
0.000855216
0.000775393
0.000706682
0.000647069
0.000594987
0.000549192
0.000508695
0.000472693
0.000440531
0.000411672
0.000385669
0.00036215
0.0003408
0.000321356
0.000303593
0.000287318
0.000272371
0.00025862
0.000245981
0.000234467
0.000224363
0.000216799
0.000215543
0.000232401
0.000303405
0.000540139
0.00128318
0.00347688
0.0093529
0.0232822
0.0523324
0.105948
0.194449
0.326653
0.507595
0.737582
1.01275
1.32647
1.67077
2.03771
2.42044
2.81324
3.2111
3.60942
4.00417
4.39201
4.76947
5.13325
5.48083
5.81004
6.11766
6.40132
6.66058
6.89348
7.09719
7.27101
7.41308
7.52419
7.6063
7.66077
7.68876
7.69183
7.67171
7.63012
7.56888
7.48986
7.3949
7.28575
7.16412
7.03173
6.89018
6.74096
6.58545
6.42495
6.26066
6.09369
5.925
5.75546
5.58586
5.41691
5.24921
5.08331
4.91964
4.75861
4.60053
4.4457
4.29433
4.1466
4.00265
3.86257
3.72645
3.59432
3.46619
3.34207
3.22192
3.1057
2.99333
2.88476
2.77987
2.67858
2.58077
2.48633
2.39512
2.30704
2.22196
2.13977
2.06037
1.98368
1.90962
1.83813
1.7692
1.7028
1.63892
1.57759
1.51881
1.46262
1.40902
1.35804
1.30966
1.2639
1.22071
1.18009
1.14193
1.10655
1.07467
0.0015517
0.00135313
0.00119226
0.00105983
0.0009493
0.00085596
0.000776321
0.000707755
0.00064825
0.000596237
0.00055048
0.000509992
0.000473974
0.000441779
0.000412871
0.000386808
0.000363219
0.000341795
0.000322271
0.000304425
0.000288065
0.000273027
0.000259169
0.000246369
0.000234519
0.000223528
0.000213321
0.00020385
0.000195125
0.000187322
0.000181127
0.000178833
0.000187638
0.00022944
0.000371693
0.000822475
0.00217766
0.00591423
0.0150957
0.0349917
0.0731322
0.13843
0.239402
0.382058
0.56848
0.796762
1.06197
1.35747
1.67601
2.01092
2.35648
2.70768
3.0599
3.40901
3.75141
4.08345
4.40177
4.70403
4.98785
5.2504
5.48974
5.70607
5.89718
6.06137
6.19854
6.30738
6.3894
6.44662
6.48058
6.49259
6.4842
6.45707
6.41285
6.35314
6.27955
6.19367
6.09698
5.99086
5.87669
5.75576
5.62924
5.49822
5.36367
5.22651
5.08759
4.94764
4.80733
4.66724
4.5279
4.38975
4.25321
4.1186
3.98624
3.85634
3.72912
3.60474
3.48333
3.36499
3.24979
3.13777
3.02896
2.92333
2.82088
2.72156
2.62532
2.53209
2.44179
2.35434
2.26966
2.18765
2.10824
2.03135
1.95694
1.88496
1.81538
1.74819
1.68341
1.62104
1.56111
1.50367
1.44873
1.39633
1.34649
1.2992
1.25448
1.21227
1.17259
1.13533
1.10081
1.06968
0.00155164
0.00135311
0.00119233
0.00106004
0.000949679
0.000856504
0.000777017
0.000708582
0.000649181
0.000597245
0.00055154
0.000511081
0.000475073
0.000442869
0.000413939
0.000387843
0.000364211
0.000342737
0.000323159
0.000305254
0.000288833
0.000273732
0.00025981
0.000246945
0.000235029
0.000223971
0.000213686
0.000204105
0.000195162
0.000186803
0.000178982
0.000171666
0.000164857
0.000158646
0.000153403
0.000150377
0.000153525
0.000174887
0.000251272
0.000497097
0.00125231
0.0034109
0.00896397
0.021611
0.0470836
0.0927951
0.166655
0.275294
0.42238
0.607909
0.828614
1.07903
1.35257
1.64263
1.94336
2.24956
2.55659
2.86044
3.15746
3.4441
3.71718
3.97476
4.21462
4.43449
4.633
4.81077
4.96591
5.09748
5.20574
5.29004
5.35175
5.39285
5.41486
5.41909
5.40687
5.37969
5.33898
5.28609
5.22234
5.14906
5.06743
4.97859
4.88357
4.78339
4.67899
4.57121
4.46081
4.34848
4.23487
4.12054
4.00602
3.89175
3.77813
3.6655
3.55417
3.44441
3.33643
3.23042
3.12653
3.02487
2.92554
2.8286
2.73409
2.64202
2.5524
2.46519
2.38039
2.29794
2.21779
2.13992
2.06427
1.99082
1.91954
1.85043
1.78348
1.71872
1.65618
1.59591
1.53794
1.48234
1.42914
1.37838
1.3301
1.2843
1.24097
1.2001
1.16169
1.12561
1.09224
1.0621
0.0015516
0.00135309
0.00119238
0.00106019
0.000949949
0.000856901
0.000777536
0.00070921
0.000649902
0.000598042
0.000552395
0.000511975
0.000475991
0.000443797
0.000414864
0.000388754
0.000365101
0.000343597
0.000323984
0.00030604
0.000289576
0.00027443
0.000260461
0.000247547
0.000235583
0.000224475
0.000214142
0.000204511
0.00019552
0.000187111
0.000179235
0.000171846
0.000164905
0.000158376
0.000152229
0.000146441
0.000141007
0.000135965
0.000131492
0.000128196
0.000128039
0.000137038
0.000173447
0.000293947
0.000672657
0.00179825
0.00485254
0.0122381
0.0280384
0.0580675
0.109237
0.188238
0.299889
0.445933
0.624816
0.832319
1.06262
1.30936
1.56655
1.82888
2.09173
2.35135
2.60433
2.84747
3.07799
3.29428
3.49451
3.67698
3.84074
3.98646
4.11298
4.21965
4.30684
4.37457
4.42349
4.45547
4.47197
4.47419
4.46321
4.44027
4.40655
4.36318
4.31122
4.2517
4.18561
4.11382
4.03719
3.95647
3.87239
3.78562
3.69677
3.60637
3.51493
3.42288
3.33062
3.2385
3.14684
3.0559
2.96593
2.8771
2.78959
2.70353
2.61901
2.53612
2.45492
2.37544
2.29771
2.22173
2.14751
2.07506
2.00438
1.93547
1.86836
1.80308
1.73968
1.67819
1.6187
1.56126
1.50595
1.45284
1.40199
1.35345
1.30726
1.26344
1.222
1.1829
1.14615
1.11165
1.07976
1.05093
0.00155158
0.00135309
0.00119242
0.0010603
0.000950142
0.000857189
0.000777919
0.000709684
0.000650456
0.000598665
0.000553074
0.000512697
0.000476744
0.000444571
0.000415648
0.000389538
0.000365878
0.000344361
0.000324729
0.000306761
0.000290269
0.000275092
0.00026109
0.000248142
0.000236142
0.000224997
0.000214626
0.000204957
0.000195928
0.000187482
0.000179568
0.000172142
0.000165165
0.000158599
0.000152413
0.000146578
0.000141067
0.000135856
0.000130926
0.000126258
0.000121845
0.000117697
0.000113889
0.000110685
0.000108961
0.000111456
0.000126472
0.000179522
0.000350474
0.00087755
0.0023896
0.00629797
0.0152591
0.0334641
0.0664615
0.120346
0.200433
0.309861
0.448826
0.614657
0.802603
1.00694
1.22182
1.44194
1.66274
1.8807
2.0928
2.29629
2.48884
2.66905
2.8355
2.98692
3.12258
3.24283
3.34763
3.4362
3.50881
3.56613
3.6079
3.63571
3.6509
3.6546
3.64775
3.63123
3.60601
3.57301
3.53311
3.48709
3.43574
3.37976
3.31983
3.25655
3.19049
3.12217
3.05205
2.98059
2.90816
2.83511
2.76175
2.68834
2.61512
2.54228
2.46999
2.39841
2.32764
2.25778
2.18891
2.12109
2.05438
1.98884
1.92452
1.86148
1.79978
1.7395
1.68073
1.62355
1.56807
1.51438
1.46258
1.41276
1.36502
1.31941
1.27599
1.23478
1.1958
1.15902
1.12445
1.09201
1.06205
1.0349
0.00155157
0.00135308
0.00119245
0.00106038
0.000950282
0.0008574
0.000778203
0.000710039
0.000650878
0.000599147