/*--------------------------------*- C++ -*----------------------------------*\
| =========                 |                                                 |
| \\      /  F ield         | OpenFOAM: The Open Source CFD Toolbox           |
|  \\    /   O peration     | Version:  1.7.0                                 |
|   \\  /    A nd           | Web:      www.OpenFOAM.com                      |
|    \\/     M anipulation  |                                                 |
\*---------------------------------------------------------------------------*/
FoamFile
{
    version     2.0;
    format      ascii;
    class       volScalarField;
    location    "0.33";
    object      N2;
}
// * * * * * * * * * * * * * * * * * * * * * * * * * * * * * * * * * * * * * //

dimensions      [0 0 0 0 0 0 0];

internalField   nonuniform List<scalar> 
5460
(
0.739599
0.739554
0.739524
0.739497
0.739471
0.739433
0.73939
0.739355
0.739336
0.739311
0.739286
0.739256
0.739206
0.739151
0.739094
0.739075
0.739106
0.739132
0.739142
0.739153
0.739147
0.739138
0.739142
0.739139
0.739136
0.739132
0.739118
0.739088
0.739049
0.73908
0.73908
0.739068
0.73908
0.739109
0.739176
0.739193
0.739364
0.73946
0.739659
0.739903
0.740175
0.740462
0.740717
0.740974
0.741498
0.742011
0.742453
0.742928
0.743442
0.743894
0.744399
0.744876
0.745357
0.745832
0.74629
0.746731
0.747189
0.747608
0.748088
0.748454
0.748926
0.749375
0.749664
0.750137
0.750468
0.750934
0.751296
0.751529
0.751738
0.752182
0.752496
0.752861
0.753074
0.753418
0.753666
0.753902
0.753978
0.754333
0.754523
0.754655
0.754924
0.755119
0.75543
0.755543
0.755753
0.756024
0.75614
0.756353
0.756507
0.75665
0.756792
0.756969
0.757163
0.75737
0.75751
0.757591
0.757793
0.75787
0.758086
0.758169
0.758333
0.758475
0.758556
0.758708
0.758835
0.7589
0.759104
0.759275
0.759301
0.759397
0.759571
0.75975
0.759814
0.759903
0.760009
0.76013
0.760228
0.760366
0.760423
0.760524
0.760636
0.760785
0.76089
0.761011
0.761075
0.761158
0.761238
0.761352
0.761472
0.761567
0.739599
0.739572
0.739518
0.739481
0.739456
0.739447
0.739432
0.739403
0.739373
0.739345
0.73931
0.739279
0.739238
0.739181
0.739125
0.739034
0.739082
0.739123
0.739147
0.739161
0.739153
0.73914
0.739144
0.739156
0.739156
0.739153
0.73914
0.73914
0.73914
0.73914
0.739137
0.739137
0.739202
0.739273
0.739348
0.739442
0.739567
0.739718
0.739917
0.740138
0.740382
0.740671
0.741004
0.741339
0.741768
0.742225
0.742674
0.743149
0.743616
0.744068
0.744558
0.745046
0.745542
0.746009
0.746477
0.746936
0.747378
0.747781
0.748214
0.748641
0.749086
0.749489
0.749867
0.750303
0.750651
0.751067
0.751424
0.751711
0.751994
0.752357
0.752654
0.752994
0.753254
0.753575
0.753851
0.754062
0.754231
0.754521
0.754727
0.754897
0.75515
0.755355
0.755609
0.75579
0.756002
0.756221
0.756363
0.75656
0.756719
0.756887
0.757028
0.757191
0.757384
0.757571
0.757706
0.757815
0.757993
0.758107
0.758285
0.758384
0.758545
0.758672
0.758764
0.758893
0.759023
0.759115
0.759287
0.759432
0.759502
0.759598
0.759754
0.759903
0.759986
0.760084
0.76019
0.760299
0.760399
0.760519
0.760587
0.760681
0.760792
0.760917
0.761022
0.761134
0.761204
0.761278
0.761368
0.761467
0.761579
0.761666
0.739599
0.73958
0.739555
0.739537
0.73952
0.739496
0.739466
0.739444
0.739426
0.739408
0.739396
0.739375
0.739344
0.739303
0.739256
0.73922
0.73921
0.739196
0.739194
0.739204
0.739204
0.739187
0.739159
0.739174
0.739189
0.739203
0.739208
0.739221
0.739231
0.739237
0.739282
0.739337
0.739404
0.739501
0.739606
0.739747
0.739911
0.740107
0.740331
0.740567
0.740827
0.741131
0.741462
0.741804
0.742201
0.742632
0.743067
0.743517
0.743962
0.744408
0.744883
0.745363
0.745839
0.746301
0.746753
0.747199
0.747622
0.748021
0.748435
0.748869
0.749294
0.74968
0.750068
0.750476
0.750836
0.75122
0.751568
0.751875
0.752182
0.752518
0.7528
0.75312
0.753406
0.753719
0.753993
0.754207
0.754407
0.754669
0.754878
0.755068
0.755309
0.755523
0.755753
0.755951
0.756163
0.756356
0.756513
0.756703
0.756873
0.757044
0.757187
0.757355
0.757532
0.757713
0.757851
0.757976
0.758128
0.758258
0.75842
0.758529
0.758687
0.758805
0.758903
0.759023
0.759157
0.759254
0.759408
0.759542
0.759631
0.759727
0.759874
0.760008
0.7601
0.760199
0.760305
0.760409
0.760507
0.760616
0.760691
0.760783
0.760891
0.761005
0.761108
0.761211
0.761286
0.761358
0.761449
0.761546
0.761646
0.761731
0.7396
0.739594
0.739579
0.739566
0.739548
0.739534
0.739515
0.739498
0.739483
0.739465
0.739446
0.739425
0.739408
0.739381
0.739348
0.73932
0.739297
0.739283
0.739279
0.739274
0.739266
0.739251
0.73922
0.739209
0.739248
0.739288
0.73932
0.739368
0.739411
0.739456
0.739534
0.739635
0.739747
0.739893
0.740056
0.740235
0.740425
0.740666
0.740916
0.741178
0.741451
0.741756
0.74209
0.742424
0.7428
0.743201
0.743611
0.74403
0.744447
0.744876
0.745321
0.74578
0.746225
0.746671
0.747101
0.747524
0.747925
0.748306
0.748707
0.749139
0.749541
0.749919
0.75029
0.750681
0.751033
0.751405
0.751742
0.752055
0.752368
0.752687
0.752973
0.753272
0.753569
0.753871
0.75413
0.754352
0.754574
0.754811
0.755023
0.755226
0.755458
0.755674
0.755889
0.756091
0.756299
0.756472
0.756643
0.756827
0.757002
0.757172
0.757318
0.757485
0.757655
0.757825
0.757966
0.7581
0.75824
0.75838
0.758529
0.758647
0.758796
0.758913
0.759012
0.75913
0.759261
0.759363
0.759504
0.759633
0.759732
0.759832
0.759967
0.760094
0.760189
0.760291
0.760393
0.760494
0.760592
0.760692
0.760774
0.760863
0.760966
0.761075
0.761174
0.761272
0.76135
0.761423
0.761512
0.761604
0.761699
0.76178
0.7396
0.739587
0.739578
0.739569
0.739557
0.739543
0.73953
0.73952
0.73951
0.739494
0.739481
0.739467
0.73945
0.739428
0.739409
0.739384
0.739363
0.73936
0.739359
0.739354
0.739353
0.739365
0.739379
0.739404
0.739445
0.739499
0.739563
0.739639
0.739727
0.739839
0.739967
0.740108
0.740293
0.740493
0.740702
0.740922
0.741158
0.741415
0.741672
0.74195
0.742228
0.742546
0.742868
0.743188
0.743525
0.743903
0.744284
0.744668
0.74505
0.745451
0.745866
0.746285
0.746702
0.747115
0.747522
0.747916
0.748295
0.748663
0.749044
0.749457
0.749834
0.750203
0.750557
0.750928
0.751278
0.751625
0.751952
0.752263
0.752576
0.752873
0.753162
0.753447
0.75374
0.754029
0.754278
0.754504
0.754732
0.754958
0.755166
0.755378
0.755602
0.755811
0.756016
0.756223
0.756427
0.756591
0.756768
0.756947
0.757124
0.757293
0.757441
0.757602
0.757766
0.75793
0.758071
0.758213
0.758345
0.758484
0.758627
0.758751
0.758895
0.759008
0.759111
0.759227
0.759355
0.759457
0.759591
0.759715
0.759821
0.759923
0.760046
0.760172
0.760268
0.76037
0.76047
0.760569
0.760664
0.76076
0.760844
0.76093
0.76103
0.761136
0.761233
0.761325
0.761405
0.761477
0.761566
0.761656
0.761746
0.761825
0.7396
0.739589
0.739582
0.739567
0.739546
0.739508
0.739497
0.7395
0.739504
0.739504
0.7395
0.73949
0.73948
0.739474
0.739469
0.739462
0.739454
0.739453
0.739464
0.739482
0.739505
0.739545
0.739596
0.739665
0.739754
0.739861
0.739983
0.74012
0.740271
0.740434
0.740606
0.740805
0.741051
0.741298
0.74154
0.741792
0.742053
0.742318
0.742584
0.742864
0.743148
0.743451
0.743752
0.74405
0.744368
0.744709
0.745054
0.745407
0.745759
0.746119
0.746491
0.746872
0.747253
0.747629
0.748007
0.748375
0.748724
0.74907
0.749437
0.749819
0.750179
0.750528
0.750864
0.751213
0.751549
0.751876
0.752191
0.752492
0.752795
0.753083
0.753367
0.753641
0.753927
0.754198
0.754441
0.754667
0.754894
0.75511
0.755316
0.755533
0.755747
0.75595
0.756147
0.756354
0.756553
0.756716
0.756892
0.757068
0.757243
0.75741
0.757559
0.757714
0.757873
0.758031
0.758175
0.758315
0.758444
0.758583
0.758722
0.758846
0.758985
0.759095
0.759203
0.759316
0.759442
0.759544
0.759673
0.759796
0.759902
0.760004
0.760123
0.760243
0.760341
0.760442
0.760538
0.760638
0.760731
0.760821
0.760906
0.760991
0.761088
0.761192
0.761286
0.761374
0.761454
0.761527
0.761614
0.761702
0.761788
0.761865
0.7396
0.739587
0.739585
0.739578
0.739568
0.739554
0.739541
0.739528
0.739518
0.739514
0.73951
0.739503
0.739502
0.739515
0.739533
0.739552
0.739578
0.739614
0.739657
0.739715
0.739789
0.739887
0.740013
0.74015
0.740302
0.740485
0.74068
0.740882
0.741087
0.741293
0.741532
0.741776
0.74204
0.742308
0.742567
0.742835
0.743099
0.743357
0.743617
0.743878
0.744156
0.744438
0.744721
0.745001
0.745289
0.745589
0.745898
0.746212
0.746527
0.746854
0.747183
0.747521
0.74787
0.748207
0.748552
0.748889
0.749213
0.749537
0.749875
0.750225
0.750562
0.750886
0.751205
0.751528
0.751845
0.752155
0.752455
0.752747
0.753037
0.753315
0.753585
0.753853
0.754127
0.754382
0.754622
0.75484
0.755065
0.755274
0.755479
0.75569
0.755898
0.756095
0.756285
0.756489
0.756682
0.756845
0.757017
0.75719
0.75736
0.757523
0.757673
0.757823
0.757978
0.758131
0.758277
0.758415
0.75854
0.758678
0.758814
0.758939
0.759074
0.759182
0.759291
0.759402
0.759523
0.759628
0.759752
0.759873
0.759978
0.760081
0.760195
0.760311
0.760409
0.760508
0.760603
0.760701
0.760793
0.760878
0.760965
0.761049
0.761144
0.761243
0.761336
0.761421
0.7615
0.761575
0.761658
0.761745
0.761829
0.761903
0.7396
0.739591
0.73958
0.739571
0.739565
0.739556
0.73955
0.739543
0.739534
0.739535
0.739532
0.739523
0.739539
0.739612
0.739686
0.739766
0.739866
0.739975
0.740101
0.740239
0.740392
0.740566
0.740779
0.740996
0.74123
0.741472
0.741715
0.74196
0.742203
0.742449
0.742705
0.742968
0.743236
0.743495
0.743747
0.744006
0.744259
0.744503
0.744747
0.744997
0.745248
0.745504
0.745759
0.746007
0.746261
0.74653
0.746798
0.747074
0.747356
0.747644
0.74793
0.748234
0.748542
0.748843
0.749148
0.749453
0.749746
0.750046
0.750352
0.75067
0.750978
0.751277
0.751578
0.751873
0.752169
0.752462
0.752746
0.753023
0.753297
0.753561
0.753823
0.754081
0.75434
0.754583
0.754813
0.755024
0.755244
0.75545
0.755648
0.755854
0.756056
0.756246
0.75643
0.75663
0.756816
0.756978
0.757142
0.757314
0.757479
0.757639
0.757786
0.757936
0.758085
0.758232
0.75838
0.758514
0.758639
0.758774
0.758907
0.759031
0.759161
0.759268
0.759377
0.759487
0.759604
0.759707
0.759829
0.759947
0.760051
0.760154
0.760265
0.760377
0.760474
0.760571
0.760666
0.760762
0.76085
0.760934
0.761021
0.761105
0.761197
0.761292
0.761383
0.761466
0.761544
0.761619
0.761701
0.761785
0.761868
0.76194
0.7396
0.739588
0.739582
0.739579
0.739578
0.739581
0.73959
0.73961
0.739645
0.739691
0.739747
0.73982
0.739919
0.740043
0.740196
0.740379
0.740582
0.740798
0.741026
0.741263
0.741506
0.741764
0.74203
0.742296
0.742561
0.742834
0.743096
0.743352
0.743594
0.743847
0.744099
0.744348
0.744595
0.744828
0.745062
0.745293
0.745513
0.745732
0.745953
0.74618
0.746401
0.746618
0.746841
0.747061
0.747279
0.747512
0.74774
0.747971
0.748218
0.74847
0.748717
0.748982
0.749251
0.749516
0.749786
0.750056
0.750318
0.750586
0.750859
0.751144
0.751427
0.751703
0.751982
0.752251
0.752524
0.752793
0.753058
0.753323
0.753578
0.75383
0.754075
0.754321
0.754566
0.754797
0.755017
0.755221
0.755433
0.755634
0.755829
0.756027
0.756217
0.756403
0.756583
0.756776
0.756957
0.757115
0.757277
0.757444
0.757603
0.757758
0.7579
0.758047
0.758193
0.758334
0.758482
0.758616
0.758741
0.758871
0.759
0.759122
0.759249
0.759353
0.759463
0.759571
0.759684
0.759787
0.759905
0.76002
0.760124
0.760226
0.760333
0.760441
0.760538
0.760633
0.760728
0.760821
0.760907
0.76099
0.761075
0.761159
0.761248
0.76134
0.76143
0.76151
0.761587
0.761662
0.761743
0.761825
0.761906
0.761976
0.739602
0.739596
0.739599
0.739621
0.73966
0.739714
0.739798
0.739904
0.740048
0.740221
0.740418
0.740642
0.740891
0.741158
0.741443
0.741736
0.742034
0.742331
0.742622
0.742913
0.743197
0.743471
0.743743
0.744009
0.744267
0.74452
0.744764
0.744999
0.745206
0.745431
0.745653
0.745868
0.746079
0.746279
0.746474
0.746662
0.746843
0.747031
0.747219
0.747408
0.747591
0.747772
0.747957
0.748142
0.748325
0.748516
0.748708
0.748904
0.74911
0.749321
0.749535
0.749756
0.749985
0.750216
0.75045
0.750686
0.750916
0.751152
0.751393
0.751643
0.7519
0.752153
0.752407
0.752651
0.752898
0.75315
0.753395
0.753641
0.75388
0.754113
0.754343
0.754575
0.754805
0.755024
0.755235
0.755432
0.755631
0.755825
0.756017
0.756205
0.756387
0.756564
0.756741
0.756928
0.757102
0.757256
0.757412
0.757576
0.75773
0.757879
0.758019
0.758163
0.758303
0.758442
0.758588
0.758719
0.758843
0.758968
0.759096
0.759215
0.759336
0.75944
0.759549
0.759655
0.759764
0.759866
0.759981
0.760093
0.760196
0.760297
0.7604
0.760505
0.760602
0.760695
0.760788
0.760879
0.760963
0.761045
0.761129
0.761211
0.7613
0.761388
0.761476
0.761555
0.76163
0.761705
0.761783
0.761864
0.761943
0.762013
0.739635
0.739694
0.739808
0.739979
0.740198
0.740466
0.740787
0.741145
0.741527
0.741919
0.742309
0.742685
0.743051
0.743399
0.743729
0.744042
0.744339
0.74462
0.744883
0.745134
0.745384
0.745616
0.745837
0.746051
0.746254
0.746449
0.746641
0.746821
0.746988
0.747155
0.747316
0.747482
0.747642
0.747793
0.747945
0.748089
0.748223
0.748365
0.748516
0.748666
0.748807
0.74895
0.749095
0.749239
0.749386
0.749538
0.749692
0.749852
0.750021
0.750192
0.750367
0.750551
0.750742
0.750937
0.751133
0.751335
0.751534
0.751736
0.751949
0.75217
0.752396
0.752624
0.752851
0.753069
0.753295
0.753524
0.753747
0.753972
0.754196
0.754412
0.754625
0.754842
0.755058
0.755266
0.755465
0.755651
0.75584
0.756028
0.756213
0.756391
0.756566
0.756736
0.756906
0.757084
0.757252
0.757402
0.757554
0.757712
0.757862
0.758006
0.758142
0.758281
0.758417
0.758555
0.758695
0.758823
0.758946
0.759068
0.759192
0.759308
0.759425
0.759528
0.759636
0.759738
0.759844
0.759946
0.760057
0.760168
0.760269
0.760367
0.760467
0.76057
0.760666
0.760756
0.760848
0.760937
0.761018
0.761099
0.761182
0.761263
0.76135
0.761436
0.761522
0.761599
0.761673
0.761748
0.761824
0.761904
0.76198
0.76205
0.740288
0.741022
0.74183
0.742608
0.743335
0.743983
0.744557
0.745049
0.745461
0.745805
0.746102
0.746364
0.746587
0.746788
0.746977
0.747163
0.747337
0.747494
0.747636
0.747779
0.747916
0.748047
0.748176
0.748295
0.748417
0.748536
0.74865
0.748757
0.748857
0.748958
0.749057
0.749156
0.749256
0.749356
0.749452
0.749542
0.749627
0.749727
0.74983
0.749936
0.750035
0.750136
0.750239
0.750344
0.750454
0.750569
0.750686
0.750807
0.75094
0.751073
0.751211
0.751357
0.751511
0.751667
0.75183
0.751998
0.752167
0.752341
0.752521
0.752711
0.752911
0.75311
0.753311
0.753505
0.753705
0.753912
0.754114
0.754319
0.754524
0.754722
0.75492
0.755119
0.75532
0.755517
0.755704
0.75588
0.756057
0.756238
0.756414
0.756583
0.756752
0.756915
0.757077
0.75725
0.757409
0.757552
0.7577
0.757852
0.757998
0.758136
0.75827
0.758402
0.758534
0.758668
0.758805
0.758929
0.759051
0.75917
0.759289
0.759402
0.759515
0.759617
0.759722
0.759822
0.759926
0.760027
0.760134
0.760243
0.760342
0.760437
0.760535
0.760636
0.76073
0.760818
0.760909
0.760995
0.761075
0.761154
0.761236
0.761316
0.7614
0.761484
0.761567
0.761644
0.761717
0.76179
0.761865
0.761942
0.762018
0.762086
0.761844
0.759177
0.757188
0.75556
0.754299
0.753354
0.752678
0.752205
0.751863
0.751597
0.751408
0.751251
0.751125
0.751022
0.750932
0.750875
0.750835
0.750803
0.750776
0.750749
0.750738
0.750737
0.750743
0.750755
0.750769
0.750789
0.75081
0.750831
0.750852
0.750877
0.750904
0.750931
0.75096
0.750994
0.751037
0.751072
0.751108
0.751156
0.751211
0.751266
0.751317
0.751376
0.751435
0.751497
0.751564
0.751643
0.751722
0.751806
0.751901
0.751996
0.752097
0.752205
0.75232
0.752439
0.752565
0.7527
0.75284
0.752984
0.753134
0.753291
0.753461
0.753634
0.753805
0.753977
0.754152
0.754332
0.754512
0.754697
0.754881
0.755061
0.755243
0.755423
0.755607
0.75579
0.755963
0.756131
0.756298
0.756466
0.756632
0.756793
0.756953
0.757107
0.757264
0.757426
0.757577
0.757714
0.757858
0.758001
0.758142
0.758277
0.758407
0.758534
0.75866
0.75879
0.758921
0.759042
0.759161
0.759278
0.759392
0.759503
0.75961
0.759712
0.759813
0.759912
0.760013
0.760112
0.760216
0.760321
0.760419
0.760512
0.760607
0.760705
0.760797
0.760884
0.760972
0.761056
0.761135
0.761212
0.761293
0.761371
0.761453
0.761534
0.761616
0.761691
0.761762
0.761835
0.761907
0.761983
0.762058
0.762124
0.766267
0.765786
0.764926
0.763918
0.762835
0.761746
0.76073
0.759765
0.758856
0.758047
0.757339
0.756726
0.756199
0.755751
0.755354
0.755017
0.754732
0.75448
0.754247
0.754028
0.753851
0.753698
0.753562
0.753444
0.753341
0.753246
0.753165
0.753088
0.75302
0.752958
0.752902
0.752854
0.752815
0.752782
0.752753
0.752729
0.752712
0.752702
0.752702
0.752702
0.752704
0.752717
0.752729
0.752747
0.752774
0.752805
0.752847
0.752891
0.752944
0.753
0.753061
0.753132
0.753206
0.753287
0.753376
0.753475
0.753581
0.753691
0.753811
0.753936
0.754075
0.754217
0.754359
0.754503
0.754651
0.754802
0.754961
0.75512
0.755284
0.755445
0.755606
0.755769
0.755935
0.756102
0.75626
0.756415
0.75657
0.756726
0.756879
0.757029
0.757181
0.757327
0.757474
0.757624
0.757767
0.757898
0.758034
0.758167
0.758305
0.758434
0.75856
0.758682
0.758801
0.758926
0.75905
0.759169
0.759284
0.759397
0.759507
0.759613
0.759717
0.759816
0.759913
0.760012
0.760109
0.760205
0.760307
0.760407
0.760503
0.760595
0.760686
0.76078
0.760871
0.760956
0.761041
0.761124
0.761201
0.761276
0.761355
0.761431
0.76151
0.761589
0.761668
0.761743
0.761812
0.761883
0.761954
0.762028
0.762101
0.762166
0.766766
0.766678
0.766496
0.766474
0.76628
0.765912
0.765393
0.764754
0.764031
0.763263
0.762498
0.76177
0.761082
0.760442
0.759852
0.759301
0.75879
0.758321
0.757895
0.757501
0.757154
0.756837
0.756552
0.756301
0.756071
0.755862
0.755672
0.755494
0.755329
0.755178
0.755039
0.754911
0.754798
0.754694
0.754596
0.754509
0.754429
0.75436
0.7543
0.754246
0.754197
0.754159
0.754124
0.754096
0.754072
0.754059
0.754059
0.754063
0.754072
0.754085
0.754106
0.754138
0.754173
0.754214
0.754265
0.754326
0.754396
0.754472
0.754558
0.754651
0.754755
0.754865
0.754976
0.75509
0.755208
0.75533
0.755464
0.755599
0.755739
0.755877
0.756017
0.756158
0.756306
0.756454
0.756596
0.756738
0.756878
0.757019
0.757161
0.7573
0.757439
0.757575
0.757711
0.757848
0.757982
0.758106
0.758231
0.758356
0.758487
0.758612
0.758731
0.758847
0.758961
0.75908
0.759196
0.759311
0.759423
0.759531
0.759636
0.759737
0.759837
0.759933
0.760026
0.760122
0.760215
0.76031
0.760407
0.760504
0.760597
0.760687
0.760774
0.760864
0.760952
0.761036
0.761119
0.761199
0.761274
0.761347
0.761425
0.761499
0.761575
0.761651
0.761727
0.7618
0.761868
0.761937
0.762006
0.762079
0.76215
0.762213
0.766834
0.766802
0.766803
0.766832
0.766851
0.766843
0.766798
0.766695
0.766504
0.766204
0.765799
0.765308
0.764758
0.764175
0.763584
0.763
0.762428
0.761882
0.76137
0.760885
0.760425
0.760002
0.759608
0.75924
0.758896
0.758571
0.758271
0.757996
0.757738
0.757498
0.757276
0.757071
0.756879
0.756703
0.756536
0.756383
0.756244
0.756115
0.755995
0.755887
0.755783
0.755692
0.755604
0.755529
0.755457
0.755402
0.755357
0.755317
0.755283
0.755253
0.755232
0.755223
0.755219
0.755222
0.755232
0.755254
0.755286
0.755326
0.755375
0.755437
0.755506
0.755583
0.755661
0.755741
0.755828
0.75592
0.756025
0.756136
0.756249
0.756364
0.756479
0.756599
0.756725
0.756853
0.756978
0.757104
0.757224
0.757352
0.757481
0.757607
0.757732
0.757855
0.757979
0.758103
0.758225
0.758342
0.758456
0.758574
0.758694
0.758811
0.758924
0.759033
0.759143
0.759253
0.759361
0.759471
0.759577
0.759681
0.759781
0.759876
0.759971
0.760064
0.760153
0.760245
0.760334
0.760427
0.760518
0.760612
0.760702
0.760788
0.760873
0.760959
0.761044
0.761125
0.761205
0.761283
0.761356
0.761427
0.761501
0.761574
0.761646
0.76172
0.761793
0.761864
0.761931
0.761997
0.762064
0.762134
0.762204
0.762266
0.766835
0.766902
0.766932
0.766945
0.766953
0.766959
0.766964
0.766967
0.766964
0.766946
0.766898
0.766801
0.766634
0.766386
0.76606
0.765667
0.765227
0.764758
0.764276
0.763791
0.763309
0.762851
0.762421
0.762002
0.761599
0.761211
0.760845
0.760499
0.760173
0.759857
0.75956
0.759283
0.75902
0.758778
0.758547
0.758328
0.758128
0.75794
0.757762
0.7576
0.757445
0.757299
0.757165
0.757041
0.756926
0.756823
0.756731
0.756646
0.756569
0.756498
0.756436
0.756385
0.75634
0.756303
0.756273
0.756257
0.756252
0.756255
0.756268
0.756292
0.756325
0.756366
0.75641
0.756458
0.756514
0.756576
0.756651
0.756733
0.756819
0.756908
0.756998
0.757092
0.757195
0.757302
0.75741
0.757516
0.757619
0.757728
0.757841
0.75795
0.758061
0.758172
0.758282
0.75839
0.758501
0.758608
0.75871
0.758817
0.758927
0.759037
0.759141
0.759243
0.759346
0.759448
0.759549
0.759651
0.759751
0.759849
0.759943
0.760034
0.760124
0.76021
0.760295
0.760383
0.760468
0.760557
0.760644
0.760734
0.76082
0.760902
0.760983
0.761066
0.761146
0.761224
0.761301
0.761375
0.761447
0.761516
0.761587
0.761656
0.761726
0.761797
0.761868
0.761936
0.762
0.762063
0.762129
0.762196
0.762264
0.762325
0.766999
0.766998
0.766998
0.766998
0.766998
0.766997
0.766998
0.766998
0.766998
0.766998
0.766997
0.766994
0.766986
0.766967
0.766923
0.76684
0.766702
0.7665
0.766234
0.765914
0.765555
0.765172
0.764777
0.764377
0.763977
0.763582
0.763196
0.762823
0.762461
0.762111
0.761774
0.761456
0.761151
0.760859
0.760579
0.76031
0.760052
0.75981
0.759582
0.759366
0.75916
0.758966
0.758785
0.758612
0.758453
0.758305
0.758167
0.758038
0.757919
0.757809
0.757705
0.757612
0.757528
0.757452
0.757385
0.757331
0.757287
0.757253
0.757229
0.757216
0.757211
0.757216
0.757226
0.757242
0.757265
0.757297
0.757339
0.757392
0.757449
0.757509
0.757574
0.757643
0.757722
0.757805
0.757889
0.757975
0.75806
0.75815
0.758243
0.758337
0.758432
0.758527
0.75862
0.758715
0.758811
0.758905
0.758999
0.759093
0.759192
0.759291
0.759387
0.75948
0.759575
0.759668
0.75976
0.759853
0.759947
0.760038
0.760125
0.760211
0.760296
0.760376
0.760455
0.760538
0.760619
0.760702
0.760785
0.760869
0.760952
0.76103
0.761107
0.761185
0.761261
0.761336
0.761409
0.76148
0.761549
0.761616
0.761683
0.761749
0.761816
0.761883
0.76195
0.762016
0.762078
0.762138
0.762201
0.762266
0.762331
0.762391
0.767
0.767
0.767
0.767
0.767
0.767
0.767
0.767
0.767
0.767
0.767
0.767
0.767
0.766999
0.766999
0.766996
0.766989
0.766972
0.766936
0.766867
0.766754
0.76659
0.766374
0.766113
0.765817
0.765497
0.765161
0.764818
0.764472
0.764129
0.76379
0.763459
0.763136
0.762821
0.762516
0.76222
0.761933
0.76166
0.761397
0.761144
0.760898
0.760664
0.760439
0.760222
0.760019
0.75983
0.75965
0.75948
0.759321
0.759171
0.75903
0.758897
0.758775
0.758661
0.758558
0.758467
0.758385
0.758315
0.758255
0.758203
0.758162
0.758131
0.758105
0.758088
0.75808
0.758081
0.758091
0.758112
0.758139
0.75817
0.758209
0.758253
0.758304
0.758362
0.758422
0.758485
0.758551
0.75862
0.758693
0.758769
0.758845
0.758923
0.759
0.75908
0.75916
0.75924
0.759322
0.759404
0.75949
0.759577
0.759662
0.759746
0.759831
0.759916
0.759999
0.760081
0.760166
0.760249
0.76033
0.76041
0.760488
0.760562
0.760635
0.760712
0.760787
0.760865
0.760942
0.761021
0.761098
0.761173
0.761245
0.761319
0.76139
0.76146
0.761529
0.761597
0.761663
0.761727
0.76179
0.761853
0.761917
0.761979
0.762043
0.762105
0.762164
0.762222
0.762282
0.762344
0.762407
0.762464
0.767
0.767
0.767
0.767
0.767
0.767
0.767
0.767
0.767
0.767
0.767
0.767
0.767
0.767
0.767
0.767
0.767
0.767
0.766999
0.766997
0.766991
0.766978
0.766948
0.766893
0.766802
0.766668
0.766491
0.766275
0.766027
0.765756
0.765469
0.765173
0.764873
0.764571
0.764271
0.763974
0.763682
0.763396
0.763117
0.762844
0.762578
0.762322
0.762074
0.761833
0.7616
0.761376
0.761159
0.760952
0.760756
0.760571
0.760395
0.760227
0.760069
0.75992
0.759781
0.759654
0.759539
0.759432
0.759336
0.759247
0.759171
0.759105
0.759045
0.758996
0.758956
0.758927
0.758907
0.758895
0.758891
0.758894
0.758901
0.758919
0.758944
0.758974
0.75901
0.759051
0.759093
0.759141
0.759194
0.759248
0.759305
0.759365
0.759426
0.759488
0.75955
0.759616
0.759683
0.759752
0.759824
0.759899
0.759972
0.760044
0.760119
0.760193
0.760267
0.760338
0.760413
0.760487
0.760561
0.760633
0.760702
0.760771
0.760837
0.760907
0.760977
0.761047
0.761119
0.761192
0.761264
0.761333
0.761401
0.761468
0.761535
0.761601
0.761664
0.761728
0.76179
0.761851
0.76191
0.761969
0.762029
0.762088
0.762148
0.762206
0.762262
0.762317
0.762374
0.762433
0.762491
0.762547
0.767
0.767
0.767
0.767
0.767
0.767
0.767
0.767
0.767
0.767
0.767
0.767
0.767
0.767
0.767
0.767
0.767
0.767
0.767
0.767
0.767
0.767
0.766999
0.766998
0.766993
0.766983
0.76696
0.766917
0.766845
0.766738
0.766593
0.766414
0.766205
0.765974
0.765726
0.765469
0.765204
0.764937
0.764668
0.764401
0.764136
0.763875
0.763619
0.763367
0.763121
0.76288
0.762645
0.762418
0.762198
0.761987
0.761781
0.761583
0.761392
0.761211
0.761042
0.760882
0.760733
0.760593
0.760464
0.760344
0.760233
0.760132
0.760041
0.759961
0.759891
0.759831
0.75978
0.759737
0.759701
0.759674
0.759654
0.759644
0.759639
0.759641
0.759651
0.759668
0.759687
0.759713
0.759743
0.759777
0.759812
0.759852
0.759894
0.75994
0.759986
0.760034
0.760085
0.76014
0.760197
0.760257
0.760316
0.760378
0.760441
0.760504
0.760565
0.760626
0.76069
0.760755
0.760818
0.760882
0.760942
0.761004
0.761064
0.761127
0.761189
0.761253
0.761317
0.761383
0.761449
0.761513
0.761574
0.761637
0.761697
0.761758
0.761816
0.761875
0.761932
0.761989
0.762044
0.7621
0.762156
0.762209
0.762265
0.762319
0.762373
0.762424
0.762477
0.762533
0.762587
0.76264
0.767
0.767
0.767
0.767
0.767
0.767
0.767
0.767
0.767
0.767
0.767
0.767
0.767
0.767
0.767
0.767
0.767
0.767
0.767
0.767
0.767
0.767
0.767
0.767
0.767
0.767
0.766999
0.766998
0.766995
0.766988
0.766971
0.766939
0.766883
0.766799
0.766682
0.766534
0.766358
0.76616
0.765946
0.76572
0.765486
0.765248
0.765006
0.764764
0.764523
0.764283
0.764046
0.763812
0.763581
0.763359
0.76314
0.762926
0.762717
0.762516
0.762321
0.762132
0.761954
0.761784
0.761626
0.761477
0.761336
0.761204
0.761084
0.760972
0.760873
0.760783
0.760702
0.760629
0.760564
0.760507
0.76046
0.760421
0.760389
0.760364
0.760349
0.760339
0.760335
0.760335
0.760342
0.760354
0.760369
0.760388
0.760411
0.760438
0.760466
0.760495
0.760531
0.760569
0.760611
0.760655
0.760701
0.760749
0.7608
0.76085
0.760898
0.760948
0.761
0.761053
0.761107
0.76116
0.761211
0.761265
0.761318
0.761373
0.761428
0.761484
0.76154
0.761598
0.761656
0.761714
0.76177
0.761825
0.761879
0.761934
0.761987
0.76204
0.762092
0.762145
0.762195
0.762247
0.762297
0.762347
0.762397
0.762447
0.762497
0.762544
0.762594
0.762645
0.762695
0.762746
0.767
0.767
0.767
0.767
0.767
0.767
0.767
0.767
0.767
0.767
0.767
0.767
0.767
0.767
0.767
0.767
0.767
0.767
0.767
0.767
0.767
0.767
0.767
0.767
0.767
0.767
0.767
0.767
0.767
0.767
0.767
0.766999
0.766997
0.766992
0.76698
0.766957
0.766916
0.766851
0.766759
0.766638
0.766491
0.766322
0.766136
0.765937
0.765729
0.765515
0.765297
0.765076
0.764854
0.764634
0.764416
0.764199
0.763985
0.763776
0.763571
0.76337
0.763176
0.762987
0.762805
0.76263
0.762463
0.762305
0.762157
0.762019
0.761892
0.761774
0.761665
0.761564
0.761471
0.761388
0.761313
0.761247
0.761188
0.761138
0.761096
0.76106
0.761032
0.761009
0.760993
0.760982
0.760976
0.760973
0.760976
0.760983
0.760993
0.761004
0.761021
0.761042
0.761066
0.761095
0.761127
0.761159
0.761195
0.761231
0.761268
0.761306
0.761344
0.761386
0.761428
0.76147
0.761512
0.761555
0.761599
0.761646
0.761692
0.761741
0.761788
0.761838
0.761888
0.761938
0.761986
0.762035
0.762083
0.762132
0.762178
0.762225
0.762272
0.762319
0.762364
0.76241
0.762456
0.7625
0.762545
0.762591
0.762636
0.76268
0.762726
0.762772
0.762818
0.762865
0.767
0.767
0.767
0.767
0.767
0.767
0.767
0.767
0.767
0.767
0.767
0.767
0.767
0.767
0.767
0.767
0.767
0.767
0.767
0.767
0.767
0.767
0.767
0.767
0.767
0.767
0.767
0.767
0.767
0.767
0.767
0.767
0.767
0.767
0.767
0.766999
0.766998
0.766995
0.766988
0.766972
0.766943
0.766895
0.766824
0.766727
0.766605
0.766462
0.7663
0.766125
0.76594
0.765746
0.76555
0.765349
0.765146
0.764943
0.76474
0.76454
0.764343
0.764148
0.763958
0.763771
0.763591
0.763416
0.763247
0.763086
0.762934
0.762791
0.762657
0.762531
0.762414
0.762306
0.762205
0.762113
0.762029
0.761954
0.761887
0.761828
0.761776
0.76173
0.761691
0.761657
0.761627
0.761604
0.761587
0.761574
0.761564
0.761557
0.761555
0.761558
0.761565
0.761577
0.761592
0.76161
0.76163
0.761651
0.761673
0.761699
0.761725
0.761753
0.761783
0.761814
0.761846
0.761878
0.761912
0.761949
0.761986
0.762025
0.762064
0.762105
0.762146
0.762188
0.762228
0.762268
0.76231
0.762352
0.762391
0.762431
0.762472
0.762513
0.762553
0.762593
0.762634
0.762673
0.762713
0.762753
0.762793
0.762832
0.762873
0.762915
0.762956
0.763
0.767
0.767
0.767
0.767
0.767
0.767
0.767
0.767
0.767
0.767
0.767
0.767
0.767
0.767
0.767
0.767
0.767
0.767
0.767
0.767
0.767
0.767
0.767
0.767
0.767
0.767
0.767
0.767
0.767
0.767
0.767
0.767
0.767
0.767
0.767
0.767
0.767
0.767
0.767
0.767
0.766999
0.766997
0.766993
0.766983
0.766963
0.766929
0.766876
0.766801
0.766703
0.766582
0.766444
0.76629
0.766126
0.765953
0.765773
0.76559
0.765405
0.765219
0.765034
0.764849
0.764667
0.764488
0.764312
0.764142
0.763978
0.763819
0.763665
0.763519
0.76338
0.763249
0.763126
0.763012
0.762905
0.762807
0.762716
0.762634
0.762559
0.76249
0.762429
0.762373
0.762324
0.76228
0.762241
0.762207
0.762178
0.762153
0.762132
0.762117
0.762106
0.762101
0.762099
0.762101
0.762105
0.76211
0.762119
0.76213
0.762142
0.762157
0.762174
0.762193
0.762213
0.762234
0.762258
0.762284
0.762312
0.76234
0.76237
0.762401
0.762433
0.762466
0.762497
0.762529
0.762563
0.762597
0.762629
0.762662
0.762696
0.76273
0.762764
0.762798
0.762832
0.762866
0.7629
0.762934
0.762969
0.763003
0.76304
0.763076
0.763113
0.763152
0.767
0.767
0.767
0.767
0.767
0.767
0.767
0.767
0.767
0.767
0.767
0.767
0.767
0.767
0.767
0.767
0.767
0.767
0.767
0.767
0.767
0.767
0.767
0.767
0.767
0.767
0.767
0.767
0.767
0.767
0.767
0.767
0.767
0.767
0.767
0.767
0.767
0.767
0.767
0.767
0.767
0.767
0.767
0.767
0.767
0.766999
0.766996
0.76699
0.766978
0.766956
0.766918
0.766862
0.766784
0.766686
0.766569
0.766435
0.76629
0.766136
0.765975
0.76581
0.765642
0.765473
0.765304
0.765136
0.764971
0.764808
0.76465
0.764495
0.764346
0.764201
0.764061
0.763928
0.763801
0.763682
0.763572
0.763469
0.763373
0.763284
0.763202
0.763125
0.763056
0.762993
0.762934
0.762881
0.762832
0.762788
0.76275
0.762717
0.762689
0.762666
0.762647
0.762632
0.762619
0.762609
0.762603
0.762599
0.762597
0.762598
0.762603
0.762608
0.762617
0.762626
0.762638