/*--------------------------------*- C++ -*----------------------------------*\
| =========                 |                                                 |
| \\      /  F ield         | OpenFOAM: The Open Source CFD Toolbox           |
|  \\    /   O peration     | Version:  1.7.0                                 |
|   \\  /    A nd           | Web:      www.OpenFOAM.com                      |
|    \\/     M anipulation  |                                                 |
\*---------------------------------------------------------------------------*/
FoamFile
{
    version     2.0;
    format      ascii;
    class       volScalarField;
    location    "0.33";
    object      O2;
}
// * * * * * * * * * * * * * * * * * * * * * * * * * * * * * * * * * * * * * //

dimensions      [0 0 0 0 0 0 0];

internalField   nonuniform List<scalar> 
5460
(
0.2247
0.224686
0.224677
0.224669
0.224661
0.224649
0.224636
0.224625
0.224618
0.224609
0.2246
0.224589
0.224573
0.224557
0.224542
0.224542
0.224555
0.224564
0.224567
0.224569
0.224566
0.224563
0.224565
0.224563
0.224562
0.224559
0.224554
0.224544
0.224532
0.22454
0.22454
0.224538
0.224542
0.224552
0.224571
0.224576
0.224625
0.224654
0.224713
0.224785
0.224867
0.224954
0.225032
0.225114
0.225276
0.225432
0.225567
0.225711
0.225866
0.226003
0.226156
0.2263
0.226444
0.226587
0.226725
0.226857
0.226994
0.227122
0.227269
0.227382
0.227526
0.22766
0.227749
0.227893
0.227993
0.228136
0.228244
0.228312
0.228376
0.228511
0.228606
0.228717
0.228781
0.228886
0.228959
0.229029
0.229052
0.229161
0.229218
0.229258
0.22934
0.2294
0.229494
0.229528
0.229591
0.229674
0.229708
0.229773
0.229819
0.229863
0.229905
0.22996
0.230018
0.230081
0.230123
0.230147
0.230209
0.230232
0.230298
0.230322
0.230372
0.230415
0.230439
0.230486
0.230524
0.230544
0.230606
0.230658
0.230666
0.230695
0.230748
0.230802
0.230821
0.230848
0.23088
0.230917
0.230946
0.230988
0.231005
0.231036
0.231071
0.231116
0.231148
0.231184
0.231204
0.231229
0.231253
0.231288
0.231324
0.231353
0.2247
0.224691
0.224675
0.224664
0.224656
0.224653
0.224649
0.22464
0.22463
0.224621
0.224609
0.224599
0.224585
0.224568
0.224552
0.224528
0.224544
0.224558
0.224566
0.224569
0.224567
0.224562
0.224564
0.224568
0.224568
0.224566
0.224562
0.224561
0.22456
0.22456
0.224559
0.22456
0.22458
0.224601
0.224623
0.224651
0.224688
0.224732
0.224791
0.224857
0.22493
0.225019
0.22512
0.225224
0.225357
0.225497
0.225634
0.225777
0.225918
0.226056
0.226204
0.226352
0.2265
0.226641
0.226781
0.226919
0.227052
0.227174
0.227308
0.227439
0.227574
0.227695
0.227811
0.227943
0.228048
0.228176
0.228283
0.228368
0.228454
0.228564
0.228654
0.228757
0.228836
0.228933
0.229016
0.229078
0.229129
0.229218
0.22928
0.229332
0.229409
0.229471
0.229549
0.229603
0.229667
0.229733
0.229776
0.229836
0.229884
0.229935
0.229977
0.230027
0.230086
0.230142
0.230183
0.230216
0.23027
0.230304
0.230358
0.230388
0.230437
0.230475
0.230503
0.230542
0.230582
0.23061
0.230662
0.230706
0.230727
0.230756
0.230803
0.230849
0.230873
0.230903
0.230935
0.230968
0.230998
0.231035
0.231055
0.231084
0.231118
0.231156
0.231188
0.231222
0.231243
0.231265
0.231293
0.231323
0.231357
0.231383
0.2247
0.224694
0.224686
0.224681
0.224675
0.224668
0.224659
0.224652
0.224647
0.224641
0.224637
0.224629
0.224619
0.224607
0.224593
0.224583
0.224581
0.224578
0.224578
0.22458
0.22458
0.224574
0.224567
0.224572
0.224577
0.224581
0.224583
0.224586
0.224588
0.22459
0.224604
0.224621
0.224641
0.22467
0.224702
0.224743
0.224792
0.22485
0.224917
0.224987
0.225066
0.225159
0.22526
0.225365
0.225488
0.22562
0.225752
0.225889
0.226023
0.226159
0.226303
0.226448
0.22659
0.226729
0.226865
0.226999
0.227126
0.227247
0.227375
0.227508
0.227637
0.227754
0.227871
0.227995
0.228104
0.228222
0.228326
0.228418
0.228511
0.228613
0.228698
0.228795
0.228882
0.228977
0.229059
0.229122
0.229183
0.229262
0.229326
0.229384
0.229457
0.229522
0.229592
0.229652
0.229716
0.229774
0.229822
0.229879
0.229931
0.229983
0.230026
0.230077
0.23013
0.230185
0.230227
0.230265
0.230311
0.23035
0.230399
0.230432
0.23048
0.230516
0.230545
0.230582
0.230622
0.230652
0.230699
0.230739
0.230766
0.230795
0.23084
0.23088
0.230908
0.230938
0.23097
0.231001
0.231031
0.231064
0.231087
0.231115
0.231148
0.231183
0.231214
0.231245
0.231268
0.23129
0.231317
0.231346
0.231377
0.231403
0.2247
0.224698
0.224694
0.224689
0.224684
0.22468
0.224674
0.224669
0.224664
0.224659
0.224653
0.224646
0.22464
0.224632
0.224622
0.224613
0.224607
0.224603
0.224602
0.2246
0.224598
0.224593
0.224584
0.224582
0.224595
0.224607
0.224616
0.22463
0.224642
0.224656
0.22468
0.224711
0.224745
0.224789
0.224838
0.224891
0.224948
0.225019
0.225094
0.225173
0.225256
0.225349
0.225451
0.225553
0.225669
0.225792
0.225917
0.226044
0.22617
0.2263
0.226435
0.226574
0.226707
0.226841
0.22697
0.227097
0.227218
0.227334
0.227457
0.22759
0.227712
0.227826
0.227939
0.228057
0.228164
0.228278
0.228379
0.228473
0.228567
0.228664
0.228751
0.228842
0.228932
0.229023
0.2291
0.229166
0.229233
0.229306
0.22937
0.229432
0.229503
0.229568
0.229634
0.229695
0.229757
0.229809
0.229861
0.229917
0.22997
0.230022
0.230066
0.230116
0.230168
0.230219
0.230262
0.230302
0.230345
0.230387
0.230432
0.230468
0.230513
0.230548
0.230578
0.230614
0.230654
0.230685
0.230728
0.230767
0.230797
0.230827
0.230868
0.230907
0.230935
0.230966
0.230997
0.231027
0.231057
0.231087
0.231112
0.231139
0.231171
0.231204
0.231234
0.231263
0.231287
0.231309
0.231336
0.231364
0.231393
0.231418
0.2247
0.224696
0.224693
0.22469
0.224687
0.224683
0.224679
0.224676
0.224673
0.224668
0.224664
0.224659
0.224654
0.224647
0.224641
0.224633
0.224627
0.224626
0.224626
0.224624
0.224624
0.224628
0.224633
0.224641
0.224654
0.22467
0.224689
0.224711
0.224738
0.224772
0.224811
0.224855
0.224911
0.224971
0.225033
0.225099
0.225169
0.225246
0.225324
0.225408
0.225492
0.225589
0.225687
0.225784
0.225888
0.226004
0.22612
0.226237
0.226353
0.226474
0.2266
0.226726
0.226852
0.226976
0.227098
0.227216
0.227331
0.227442
0.22756
0.227686
0.2278
0.227912
0.228019
0.228132
0.228238
0.228344
0.228442
0.228536
0.22863
0.228721
0.228808
0.228895
0.228983
0.22907
0.229145
0.229213
0.229281
0.22935
0.229414
0.229478
0.229546
0.22961
0.229672
0.229735
0.229796
0.229845
0.229899
0.229953
0.230007
0.230058
0.230103
0.230152
0.230202
0.230251
0.230294
0.230337
0.230377
0.230419
0.230462
0.230499
0.230543
0.230577
0.230608
0.230643
0.230683
0.230714
0.230754
0.230792
0.230824
0.230855
0.230892
0.23093
0.230959
0.23099
0.23102
0.23105
0.231079
0.231108
0.231133
0.23116
0.23119
0.231222
0.231252
0.23128
0.231304
0.231326
0.231353
0.23138
0.231407
0.231431
0.2247
0.224697
0.224694
0.22469
0.224683
0.224672
0.224669
0.22467
0.224671
0.224671
0.224669
0.224666
0.224664
0.224662
0.22466
0.224658
0.224655
0.224654
0.224658
0.224663
0.22467
0.224683
0.224698
0.22472
0.224747
0.224779
0.224816
0.224857
0.224902
0.224952
0.225004
0.225065
0.22514
0.225214
0.225286
0.225362
0.22544
0.22552
0.2256
0.225685
0.225771
0.225864
0.225955
0.226046
0.226143
0.226248
0.226353
0.22646
0.226567
0.226677
0.226789
0.226904
0.227019
0.227131
0.227245
0.227356
0.227461
0.227566
0.227679
0.227796
0.227905
0.22801
0.228112
0.228218
0.22832
0.228419
0.228514
0.228605
0.228697
0.228784
0.22887
0.228953
0.22904
0.229121
0.229194
0.229262
0.229331
0.229396
0.229459
0.229525
0.22959
0.229652
0.229712
0.229775
0.229835
0.229883
0.229936
0.22999
0.230043
0.230094
0.230139
0.230186
0.230234
0.230282
0.230325
0.230368
0.230406
0.230449
0.230491
0.230528
0.23057
0.230604
0.230636
0.230671
0.230709
0.23074
0.230779
0.230816
0.230848
0.230879
0.230915
0.230952
0.230981
0.231012
0.231041
0.231071
0.231099
0.231126
0.231152
0.231178
0.231208
0.231239
0.231268
0.231295
0.231319
0.231341
0.231367
0.231394
0.23142
0.231443
0.2247
0.224696
0.224695
0.224693
0.22469
0.224686
0.224682
0.224678
0.224674
0.224673
0.224672
0.22467
0.224671
0.224675
0.22468
0.224686
0.224694
0.224704
0.224716
0.224734
0.224756
0.224786
0.224825
0.224867
0.224913
0.224968
0.225027
0.225087
0.225149
0.225212
0.225285
0.225359
0.225439
0.225519
0.225597
0.225677
0.225756
0.225834
0.225913
0.225993
0.226077
0.226163
0.226249
0.226334
0.226423
0.226515
0.226609
0.226704
0.2268
0.226899
0.226999
0.2271
0.227206
0.227307
0.22741
0.227512
0.227609
0.227708
0.227812
0.227919
0.228021
0.228119
0.228216
0.228314
0.22841
0.228504
0.228594
0.228683
0.22877
0.228854
0.228936
0.229018
0.2291
0.229177
0.229249
0.229315
0.229383
0.229446
0.229508
0.229573
0.229636
0.229696
0.229754
0.229815
0.229874
0.229923
0.229975
0.230027
0.230078
0.230128
0.230173
0.230219
0.230266
0.230312
0.230356
0.230398
0.230436
0.230478
0.230519
0.230557
0.230597
0.23063
0.230663
0.230697
0.230734
0.230765
0.230803
0.23084
0.230872
0.230903
0.230937
0.230972
0.231002
0.231032
0.23106
0.23109
0.231118
0.231144
0.23117
0.231196
0.231225
0.231255
0.231283
0.231309
0.231333
0.231355
0.231381
0.231407
0.231433
0.231455
0.2247
0.224697
0.224694
0.224691
0.224689
0.224686
0.224685
0.224682
0.224679
0.224679
0.224678
0.224676
0.224682
0.224704
0.224727
0.224751
0.224781
0.224814
0.224851
0.224893
0.224939
0.224992
0.225057
0.225123
0.225194
0.225267
0.22534
0.225414
0.225487
0.225562
0.22564
0.22572
0.225801
0.225878
0.225954
0.226032
0.226108
0.226182
0.226256
0.226332
0.226408
0.226486
0.226564
0.226639
0.226717
0.2268
0.226881
0.226965
0.227051
0.227138
0.227225
0.227316
0.227409
0.227499
0.227591
0.227683
0.227771
0.227862
0.227956
0.228053
0.228147
0.228237
0.228329
0.228418
0.228508
0.228597
0.228682
0.228766
0.228849
0.228929
0.229008
0.229086
0.229165
0.229238
0.229307
0.229371
0.229437
0.2295
0.22956
0.229623
0.229684
0.229742
0.229798
0.229858
0.229914
0.229963
0.230013
0.230065
0.230115
0.230163
0.230208
0.230253
0.230298
0.230343
0.230388
0.230428
0.230466
0.230507
0.230547
0.230584
0.230624
0.230656
0.230689
0.230723
0.230758
0.230789
0.230827
0.230862
0.230894
0.230925
0.230959
0.230992
0.231021
0.231051
0.23108
0.231109
0.231135
0.231161
0.231187
0.231213
0.231241
0.23127
0.231297
0.231322
0.231346
0.231369
0.231394
0.231419
0.231444
0.231466
0.2247
0.224696
0.224694
0.224694
0.224693
0.224694
0.224697
0.224703
0.224713
0.224727
0.224744
0.224766
0.224796
0.224834
0.224881
0.224936
0.224998
0.225063
0.225132
0.225203
0.225277
0.225355
0.225436
0.225517
0.225597
0.225679
0.225759
0.225835
0.225909
0.225985
0.226062
0.226137
0.226212
0.226281
0.226352
0.226421
0.226488
0.226554
0.226622
0.226691
0.226758
0.226824
0.226892
0.226959
0.227026
0.227097
0.227167
0.227237
0.227312
0.227388
0.227463
0.227543
0.227624
0.227703
0.227784
0.227866
0.227945
0.228026
0.22811
0.228197
0.228283
0.228366
0.228451
0.228532
0.228615
0.228697
0.228777
0.228857
0.228934
0.22901
0.229085
0.229159
0.229233
0.229303
0.229369
0.22943
0.229494
0.229556
0.229615
0.229675
0.229733
0.229789
0.229844
0.229903
0.229957
0.230005
0.230053
0.230104
0.230152
0.230199
0.230242
0.230287
0.230331
0.230374
0.230419
0.230459
0.230497
0.230536
0.230575
0.230612
0.23065
0.230682
0.230715
0.230748
0.230782
0.230814
0.23085
0.230885
0.230916
0.230947
0.230979
0.231012
0.231041
0.23107
0.231098
0.231126
0.231153
0.231178
0.231204
0.231229
0.231256
0.231284
0.231312
0.231336
0.231359
0.231382
0.231406
0.231431
0.231456
0.231477
0.224701
0.224699
0.2247
0.224706
0.224718
0.224734
0.22476
0.224792
0.224836
0.224888
0.224948
0.225016
0.225091
0.225172
0.225258
0.225347
0.225437
0.225527
0.225615
0.225703
0.225789
0.225872
0.225955
0.226035
0.226114
0.22619
0.226264
0.226334
0.226397
0.226465
0.226532
0.226598
0.226661
0.22672
0.226779
0.226836
0.226891
0.226948
0.227006
0.227063
0.227119
0.227174
0.22723
0.227287
0.227343
0.227401
0.22746
0.227519
0.227582
0.227646
0.22771
0.227777
0.227846
0.227915
0.227985
0.228056
0.228126
0.228198
0.228272
0.228348
0.228426
0.228503
0.22858
0.228653
0.228728
0.228805
0.228879
0.228953
0.229026
0.229096
0.229166
0.229236
0.229306
0.229372
0.229435
0.229494
0.229555
0.229614
0.229672
0.229729
0.229784
0.229838
0.229892
0.229948
0.230001
0.230047
0.230094
0.230144
0.230191
0.230236
0.230278
0.230322
0.230364
0.230407
0.230451
0.23049
0.230528
0.230566
0.230604
0.23064
0.230677
0.230708
0.230741
0.230773
0.230807
0.230838
0.230873
0.230907
0.230938
0.230968
0.230999
0.231031
0.23106
0.231088
0.231117
0.231144
0.23117
0.231194
0.23122
0.231245
0.231272
0.231299
0.231326
0.231349
0.231372
0.231395
0.231419
0.231443
0.231467
0.231488
0.224711
0.224729
0.224763
0.224815
0.224881
0.224962
0.225059
0.225168
0.225284
0.225402
0.225521
0.225634
0.225745
0.22585
0.22595
0.226045
0.226135
0.226221
0.2263
0.226376
0.226452
0.226522
0.226589
0.226654
0.226715
0.226774
0.226832
0.226887
0.226937
0.226987
0.227036
0.227086
0.227134
0.227179
0.227225
0.227268
0.227309
0.227353
0.227399
0.227444
0.227487
0.227531
0.227575
0.227619
0.227664
0.227711
0.227758
0.227807
0.227858
0.227909
0.227962
0.228018
0.228075
0.228134
0.228193
0.228253
0.228313
0.228375
0.22844
0.228507
0.228576
0.228645
0.228714
0.22878
0.228848
0.228918
0.228985
0.229054
0.229121
0.229187
0.229251
0.229317
0.229382
0.229445
0.229505
0.229561
0.229618
0.229675
0.229731
0.229786
0.229839
0.22989
0.229942
0.229996
0.230047
0.230091
0.230138
0.230185
0.230231
0.230275
0.230316
0.230358
0.230399
0.230441
0.230483
0.230522
0.230559
0.230596
0.230633
0.230668
0.230704
0.230735
0.230768
0.230799
0.230831
0.230862
0.230896
0.230929
0.23096
0.23099
0.23102
0.231051
0.23108
0.231107
0.231135
0.231162
0.231186
0.231211
0.231236
0.231261
0.231287
0.231313
0.231339
0.231363
0.231385
0.231408
0.231431
0.231455
0.231478
0.231499
0.224908
0.225131
0.225375
0.225611
0.225831
0.226027
0.226201
0.22635
0.226475
0.226579
0.226669
0.226748
0.226816
0.226877
0.226934
0.226991
0.227044
0.227091
0.227134
0.227177
0.227219
0.227258
0.227297
0.227334
0.22737
0.227406
0.227441
0.227473
0.227503
0.227533
0.227563
0.227593
0.227623
0.227653
0.227682
0.227709
0.227735
0.227766
0.227797
0.227829
0.22786
0.22789
0.227922
0.227954
0.227988
0.228023
0.228059
0.228096
0.228136
0.228176
0.228218
0.228262
0.228308
0.228355
0.228404
0.228454
0.228506
0.228559
0.228613
0.228671
0.228732
0.228793
0.228853
0.228912
0.228973
0.229035
0.229097
0.229159
0.229221
0.229281
0.229341
0.229401
0.229462
0.229521
0.229577
0.22963
0.229684
0.229739
0.229792
0.229844
0.229895
0.229944
0.229994
0.230046
0.230094
0.230137
0.230182
0.230228
0.230272
0.230314
0.230354
0.230394
0.230434
0.230475
0.230516
0.230554
0.230591
0.230627
0.230663
0.230697
0.230731
0.230762
0.230794
0.230824
0.230856
0.230886
0.230919
0.230952
0.230982
0.231011
0.23104
0.231071
0.231099
0.231126
0.231153
0.231179
0.231204
0.231228
0.231253
0.231277
0.231302
0.231328
0.231353
0.231376
0.231398
0.231421
0.231443
0.231467
0.23149
0.23151
0.231438
0.23063
0.230027
0.229534
0.229152
0.228866
0.228661
0.228518
0.228414
0.228334
0.228276
0.228229
0.228191
0.228159
0.228132
0.228115
0.228103
0.228093
0.228085
0.228076
0.228073
0.228073
0.228075
0.228079
0.228083
0.228089
0.228095
0.228101
0.228107
0.228115
0.228123
0.228131
0.228139
0.228149
0.228162
0.228172
0.228184
0.228199
0.228216
0.228232
0.228248
0.228266
0.228284
0.228303
0.228324
0.228348
0.228373
0.228398
0.228427
0.228456
0.228486
0.228518
0.228553
0.228588
0.228626
0.228667
0.22871
0.228753
0.228799
0.228847
0.228899
0.228951
0.229003
0.229055
0.229108
0.229162
0.229217
0.229273
0.229329
0.229383
0.229438
0.229493
0.229549
0.229604
0.229656
0.229706
0.229757
0.229808
0.229858
0.229907
0.229956
0.230003
0.23005
0.230099
0.230145
0.230186
0.23023
0.230273
0.230316
0.230357
0.230396
0.230434
0.230472
0.230512
0.230552
0.230588
0.230624
0.230659
0.230694
0.230727
0.23076
0.230791
0.230821
0.230852
0.230882
0.230912
0.230944
0.230976
0.231005
0.231034
0.231062
0.231092
0.23112
0.231146
0.231172
0.231198
0.231222
0.231245
0.23127
0.231294
0.231318
0.231343
0.231368
0.231391
0.231412
0.231434
0.231456
0.231479
0.231502
0.231522
0.232778
0.232632
0.232371
0.232066
0.231738
0.231408
0.2311
0.230808
0.230533
0.230288
0.230073
0.229888
0.229728
0.229592
0.229472
0.22937
0.229284
0.229207
0.229136
0.22907
0.229016
0.22897
0.228929
0.228893
0.228862
0.228833
0.228808
0.228785
0.228764
0.228745
0.228728
0.228713
0.228701
0.228691
0.228682
0.228675
0.22867
0.228667
0.228668
0.228668
0.228668
0.228673
0.228676
0.228682
0.228691
0.2287
0.228713
0.228727
0.228743
0.228759
0.228778
0.228799
0.228821
0.228845
0.228872
0.228902
0.228934
0.228968
0.229004
0.229043
0.229085
0.229128
0.229171
0.229214
0.229259
0.229305
0.229353
0.229401
0.229451
0.2295
0.229548
0.229598
0.229648
0.229698
0.229746
0.229793
0.229839
0.229887
0.229934
0.229979
0.230025
0.230069
0.230114
0.230159
0.230202
0.230242
0.230283
0.230323
0.230365
0.230404
0.230442
0.230479
0.230515
0.230553
0.230591
0.230627
0.230662
0.230696
0.230729
0.230761
0.230792
0.230822
0.230852
0.230882
0.230911
0.230941
0.230971
0.231002
0.231031
0.231059
0.231086
0.231115
0.231142
0.231168
0.231193
0.231218
0.231242
0.231264
0.231289
0.231312
0.231336
0.23136
0.231384
0.231406
0.231427
0.231449
0.23147
0.231493
0.231515
0.231535
0.23293
0.232902
0.232847
0.232841
0.232782
0.232671
0.232513
0.232319
0.232101
0.231868
0.231636
0.231416
0.231207
0.231013
0.230834
0.230668
0.230513
0.230371
0.230242
0.230122
0.230017
0.229921
0.229835
0.229759
0.229689
0.229626
0.229568
0.229514
0.229464
0.229418
0.229376
0.229337
0.229303
0.229271
0.229241
0.229215
0.229191
0.22917
0.229152
0.229136
0.229121
0.22911
0.229099
0.229091
0.229084
0.22908
0.22908
0.229082
0.229084
0.229088
0.229094
0.229104
0.229114
0.229126
0.229142
0.22916
0.229181
0.229205
0.229231
0.229259
0.229291
0.229324
0.229358
0.229392
0.229428
0.229465
0.229505
0.229546
0.229589
0.22963
0.229673
0.229716
0.22976
0.229805
0.229848
0.229891
0.229933
0.229976
0.230019
0.230061
0.230103
0.230145
0.230186
0.230227
0.230268
0.230305
0.230343
0.230381
0.23042
0.230458
0.230494
0.230529
0.230564
0.2306
0.230635
0.23067
0.230704
0.230736
0.230768
0.230799
0.230829
0.230858
0.230886
0.230915
0.230944
0.230972
0.231002
0.231031
0.231059
0.231087
0.231113
0.23114
0.231167
0.231192
0.231217
0.231241
0.231264
0.231286
0.23131
0.231332
0.231355
0.231378
0.231402
0.231424
0.231444
0.231465
0.231486
0.231508
0.23153
0.231549
0.23295
0.23294
0.23294
0.232949
0.232955
0.232953
0.232939
0.232908
0.23285
0.232759
0.232636
0.232487
0.232321
0.232144
0.231965
0.231788
0.231615
0.231449
0.231294
0.231147
0.231008
0.23088
0.230761
0.230649
0.230545
0.230446
0.230355
0.230272
0.230194
0.230121
0.230053
0.229991
0.229933
0.22988
0.229829
0.229783
0.229741
0.229702
0.229666
0.229633
0.229602
0.229574
0.229548
0.229525
0.229504
0.229487
0.229474
0.229461
0.229451
0.229442
0.229435
0.229432
0.229431
0.229432
0.229435
0.229441
0.229451
0.229464
0.229479
0.229497
0.229518
0.229542
0.229565
0.229589
0.229616
0.229643
0.229675
0.229709
0.229743
0.229778
0.229813
0.229849
0.229887
0.229926
0.229964
0.230002
0.230038
0.230077
0.230116
0.230154
0.230192
0.230229
0.230267
0.230304
0.230341
0.230377
0.230411
0.230447
0.230483
0.230519
0.230553
0.230586
0.230619
0.230652
0.230685
0.230718
0.230751
0.230782
0.230812
0.230841
0.230869
0.230897
0.230925
0.230953
0.23098
0.231008
0.231036
0.231064
0.231091
0.231117
0.231143
0.231169
0.231194
0.231219
0.231243
0.231267
0.231289
0.23131
0.231333
0.231355
0.231377
0.2314
0.231422
0.231443
0.231463
0.231483
0.231504
0.231525
0.231546
0.231565
0.23295
0.23297
0.23298
0.232983
0.232986
0.232988
0.232989
0.23299
0.232989
0.232984
0.232969
0.23294
0.232889
0.232814
0.232715
0.232596
0.232463
0.232321
0.232175
0.232028
0.231882
0.231743
0.231613
0.231486
0.231364
0.231246
0.231135
0.23103
0.230932
0.230836
0.230746
0.230662
0.230582
0.230509
0.230439
0.230372
0.230312
0.230255
0.230201
0.230152
0.230105
0.230061
0.230021
0.229983
0.229948
0.229917
0.22989
0.229864
0.22984
0.229819
0.2298
0.229784
0.22977
0.229759
0.22975
0.229745
0.229744
0.229745
0.229749
0.229756
0.229766
0.229779
0.229792
0.229807
0.229823
0.229842
0.229865
0.22989
0.229916
0.229943
0.22997
0.229998
0.23003
0.230062
0.230094
0.230126
0.230158
0.230191
0.230225
0.230258
0.230292
0.230325
0.230359
0.230391
0.230425
0.230457
0.230488
0.23052
0.230554
0.230587
0.230619
0.23065
0.230681
0.230712
0.230742
0.230773
0.230803
0.230833
0.230861
0.230889
0.230916
0.230942
0.230968
0.230995
0.23102
0.231047
0.231074
0.231101
0.231127
0.231152
0.231176
0.231201
0.231225
0.231249
0.231272
0.231295
0.231317
0.231338
0.231359
0.23138
0.231401
0.231423
0.231444
0.231465
0.231484
0.231504
0.231523
0.231544
0.231564
0.231583
0.233
0.233
0.232999
0.232999
0.232999
0.232999
0.232999
0.232999
0.232999
0.232999
0.232999
0.232998
0.232996
0.23299
0.232977
0.232951
0.23291
0.232848
0.232768
0.232671
0.232562
0.232446
0.232327
0.232205
0.232084
0.231964
0.231848
0.231734
0.231625
0.231519
0.231416
0.23132
0.231228
0.231139
0.231055
0.230973
0.230895
0.230822
0.230753
0.230687
0.230625
0.230566
0.230511
0.230459
0.230411
0.230366
0.230324
0.230285
0.230249
0.230216
0.230184
0.230156
0.230131
0.230108
0.230087
0.230071
0.230058
0.230047
0.23004
0.230036
0.230035
0.230036
0.230039
0.230044
0.230051
0.230061
0.230073
0.230089
0.230107
0.230125
0.230144
0.230165
0.230189
0.230214
0.23024
0.230266
0.230291
0.230319
0.230347
0.230376
0.230404
0.230433
0.230461
0.23049
0.230519
0.230547
0.230575
0.230604
0.230634
0.230664
0.230693
0.230721
0.23075
0.230778
0.230806
0.230834
0.230862
0.23089
0.230916
0.230942
0.230968
0.230992
0.231016
0.231041
0.231066
0.231091
0.231116
0.231142
0.231167
0.231191
0.231214
0.231237
0.23126
0.231283
0.231305
0.231326
0.231347
0.231368
0.231388
0.231408
0.231429
0.231449
0.231469
0.231489
0.231508
0.231526
0.231545
0.231565
0.231585
0.231603
0.233
0.233
0.233
0.233
0.233
0.233
0.233
0.233
0.233
0.233
0.233
0.233
0.233
0.233
0.233
0.232999
0.232997
0.232992
0.232981
0.23296
0.232925
0.232876
0.23281
0.232731
0.232642
0.232545
0.232443
0.232339
0.232234
0.23213
0.232027
0.231927
0.231829
0.231734
0.231642
0.231552
0.231465
0.231382
0.231303
0.231226
0.231151
0.231081
0.231013
0.230947
0.230885
0.230828
0.230774
0.230722
0.230674
0.230629
0.230586
0.230545
0.230508
0.230474
0.230443
0.230415
0.23039
0.230369
0.230351
0.230335
0.230323
0.230313
0.230305
0.2303
0.230298
0.230298
0.230301
0.230308
0.230316
0.230325
0.230337
0.23035
0.230365
0.230383
0.230401
0.23042
0.23044
0.230461
0.230483
0.230506
0.230529
0.230553
0.230576
0.2306
0.230625
0.230649
0.230673
0.230698
0.230724
0.230751
0.230777
0.230802
0.230828
0.230853
0.230879
0.230903
0.230929
0.230954
0.230979
0.231003
0.231026
0.231049
0.231071
0.231094
0.231117
0.231141
0.231164
0.231188
0.231211
0.231234
0.231256
0.231278
0.231299
0.231321
0.231341
0.231362
0.231382
0.231401
0.231421
0.23144
0.231459
0.231478
0.231498
0.231516
0.231534
0.231552
0.23157
0.231589
0.231608
0.231625
0.233
0.233
0.233
0.233
0.233
0.233
0.233
0.233
0.233
0.233
0.233
0.233
0.233
0.233
0.233
0.233
0.233
0.233
0.233
0.232999
0.232997
0.232993
0.232984
0.232968
0.23294
0.232899
0.232846
0.23278
0.232705
0.232623
0.232536
0.232447
0.232356
0.232264
0.232173
0.232083
0.231995
0.231908
0.231824
0.231741
0.231661
0.231583
0.231508
0.231435
0.231364
0.231296
0.231231
0.231168
0.231109
0.231052
0.230999
0.230948
0.2309
0.230855
0.230813
0.230775
0.23074
0.230707
0.230679
0.230652
0.230628
0.230608
0.23059
0.230575
0.230563
0.230554
0.230548
0.230545
0.230544
0.230544
0.230546
0.230552
0.230559
0.230568
0.230579
0.230592
0.230604
0.230619
0.230635
0.230651
0.230669
0.230687
0.230705
0.230724
0.230743
0.230763
0.230783
0.230804
0.230826
0.230848
0.23087
0.230892
0.230915
0.230937
0.23096
0.230981
0.231004
0.231026
0.231048
0.23107
0.231091
0.231112
0.231132
0.231153
0.231175
0.231196
0.231218
0.23124
0.231262
0.231282
0.231303
0.231323
0.231343
0.231363
0.231382
0.231402
0.231421
0.231439
0.231457
0.231475
0.231493
0.231511
0.231529
0.231547
0.231564
0.231581
0.231598
0.231616
0.231633
0.23165
0.233
0.233
0.233
0.233
0.233
0.233
0.233
0.233
0.233
0.233
0.233
0.233
0.233
0.233
0.233
0.233
0.233
0.233
0.233
0.233
0.233
0.233
0.233
0.232999
0.232998
0.232995
0.232988
0.232975
0.232953
0.232921
0.232877
0.232822
0.232759
0.232689
0.232614
0.232536
0.232456
0.232375
0.232294
0.232213
0.232133
0.232053
0.231976
0.2319
0.231825
0.231752
0.231681
0.231612
0.231546
0.231481
0.231419
0.231359
0.231301
0.231246
0.231195
0.231147
0.231102
0.231059
0.23102
0.230984
0.23095
0.23092
0.230892
0.230868
0.230846
0.230828
0.230813
0.2308
0.230789
0.23078
0.230775
0.230771
0.23077
0.230771
0.230774
0.230779
0.230784
0.230792
0.230801
0.230812
0.230822
0.230834
0.230847
0.230861
0.230875
0.230889
0.230905
0.230921
0.230939
0.230957
0.230975
0.230994
0.231013
0.231032
0.23105
0.231068
0.231088
0.231107
0.231126
0.231146
0.231164
0.231183
0.231201
0.23122
0.231239
0.231258
0.231278
0.231298
0.231318
0.231337
0.231356
0.231374
0.231392
0.231411
0.231429
0.231446
0.231464
0.231481
0.231498
0.231515
0.231532
0.231548
0.231565
0.231581
0.231597
0.231613
0.231629
0.231646
0.231662
0.231679
0.233
0.233
0.233
0.233
0.233
0.233
0.233
0.233
0.233
0.233
0.233
0.233
0.233
0.233
0.233
0.233
0.233
0.233
0.233
0.233
0.233
0.233
0.233
0.233
0.233
0.233
0.233
0.232999
0.232999
0.232996
0.232991
0.232981
0.232965
0.232939
0.232904
0.232859
0.232806
0.232746
0.232681
0.232612
0.232541
0.232469
0.232396
0.232323
0.23225
0.232177
0.232105
0.232034
0.231964
0.231897
0.231831
0.231766
0.231703
0.231642
0.231583
0.231525
0.231471
0.23142
0.231372
0.231327
0.231284
0.231244
0.231208
0.231174
0.231144
0.231117
0.231092
0.23107
0.23105
0.231033
0.231019
0.231007
0.230997
0.23099
0.230985
0.230982
0.230981
0.230981
0.230983
0.230987
0.230991
0.230997
0.231004
0.231012
0.23102
0.231029
0.23104
0.231052
0.231064
0.231078
0.231092
0.231106
0.231121
0.231136
0.231151
0.231166
0.231182
0.231198
0.231214
0.23123
0.231245
0.231262
0.231278
0.231295
0.231311
0.231328
0.231345
0.231363
0.231381
0.231398
0.231415
0.231431
0.231448
0.231464
0.23148
0.231496
0.231512
0.231528
0.231544
0.231559
0.231575
0.23159
0.231605
0.23162
0.231635
0.231649
0.231665
0.23168
0.231695
0.231711
0.233
0.233
0.233
0.233
0.233
0.233
0.233
0.233
0.233
0.233
0.233
0.233
0.233
0.233
0.233
0.233
0.233
0.233
0.233
0.233
0.233
0.233
0.233
0.233
0.233
0.233
0.233
0.233
0.233
0.233
0.233
0.233
0.232999
0.232998
0.232994
0.232987
0.232975
0.232955
0.232927
0.23289
0.232846
0.232795
0.232738
0.232678
0.232615
0.23255
0.232484
0.232417
0.23235
0.232283
0.232217
0.232152
0.232087
0.232023
0.231961
0.2319
0.231842
0.231784
0.231729
0.231676
0.231626
0.231578
0.231533
0.231491
0.231453
0.231417
0.231384
0.231353
0.231325
0.2313
0.231277
0.231257
0.231239
0.231224
0.231211
0.2312
0.231192
0.231185
0.23118
0.231177
0.231175
0.231174
0.231175
0.231177
0.23118
0.231183
0.231188
0.231195
0.231202
0.231211
0.23122
0.23123
0.231241
0.231252
0.231263
0.231274
0.231286
0.231299
0.231311
0.231324
0.231337
0.23135
0.231363
0.231377
0.231392
0.231406
0.231421
0.231436
0.231451
0.231466
0.23148
0.231495
0.231509
0.231524
0.231538
0.231552
0.231567
0.231581
0.231595
0.231609
0.231623
0.231636
0.23165
0.231664
0.231677
0.231691
0.231704
0.231719
0.231732
0.231747
0.233
0.233
0.233
0.233
0.233
0.233
0.233
0.233
0.233
0.233
0.233
0.233
0.233
0.233
0.233
0.233
0.233
0.233
0.233
0.233
0.233
0.233
0.233
0.233
0.233
0.233
0.233
0.233
0.233
0.233
0.233
0.233
0.233
0.233
0.233
0.233
0.232999
0.232998
0.232996
0.232991
0.232983
0.232968
0.232947
0.232917
0.23288
0.232837
0.232788
0.232735
0.232679
0.23262
0.232561
0.2325
0.232438
0.232377
0.232316
0.232255
0.232195
0.232136
0.232078
0.232022
0.231967
0.231914
0.231863
0.231814
0.231768
0.231725
0.231684
0.231646
0.231611
0.231578
0.231547
0.231519
0.231494
0.231471
0.231451
0.231433
0.231417
0.231403
0.231392
0.231381
0.231372
0.231365
0.23136
0.231356
0.231353
0.231351
0.23135
0.231351
0.231353
0.231357
0.231361
0.231367
0.231373
0.231379
0.231386
0.231394
0.231401
0.23141
0.231419
0.231428
0.231438
0.231448
0.231458
0.231469
0.231481
0.231493
0.231504
0.231517
0.231529
0.231542
0.231554
0.231566
0.231578
0.231591
0.231603
0.231615
0.231627
0.23164
0.231652
0.231664
0.231677
0.231689
0.231701
0.231713
0.231725
0.231737
0.231749
0.231762
0.231774
0.231788
0.233
0.233
0.233
0.233
0.233
0.233
0.233
0.233
0.233
0.233
0.233
0.233
0.233
0.233
0.233
0.233
0.233
0.233
0.233
0.233
0.233
0.233
0.233
0.233
0.233
0.233
0.233
0.233
0.233
0.233
0.233
0.233
0.233
0.233
0.233
0.233
0.233
0.233
0.233
0.233
0.233
0.232999
0.232998
0.232995
0.232989
0.232979
0.232963
0.23294
0.23291
0.232874
0.232832
0.232785
0.232735
0.232683
0.232628
0.232573
0.232517
0.232461
0.232404
0.232348
0.232293
0.232239
0.232186
0.232134
0.232085
0.232036
0.23199
0.231945
0.231903
0.231864
0.231826
0.231792
0.231759
0.23173
0.231702
0.231677
0.231655
0.231634
0.231615
0.231598
0.231583
0.23157
0.231558
0.231548
0.231539
0.231531
0.231525
0.23152
0.231517
0.231516
0.231515
0.231516
0.231517
0.231518
0.231521
0.231524
0.231528
0.231532
0.231538
0.231543
0.231549
0.231556
0.231563
0.231571
0.231579
0.231588
0.231597
0.231606
0.231616
0.231626
0.231635
0.231645
0.231655
0.231665
0.231675
0.231685
0.231695
0.231706
0.231716
0.231726
0.231737
0.231747
0.231757
0.231768
0.231778
0.231789
0.2318
0.231811
0.231822
0.231834
0.233
0.233
0.233
0.233
0.233
0.233
0.233
0.233
0.233
0.233
0.233
0.233
0.233
0.233
0.233
0.233
0.233
0.233
0.233
0.233
0.233
0.233
0.233
0.233
0.233
0.233
0.233
0.233
0.233
0.233
0.233
0.233
0.233
0.233
0.233
0.233
0.233
0.233
0.233
0.233
0.233
0.233
0.233
0.233
0.233
0.233
0.232999
0.232997
0.232993
0.232987
0.232975
0.232958
0.232935
0.232905
0.232869
0.232829
0.232785
0.232738
0.23269
0.23264
0.232589
0.232537
0.232486
0.232435
0.232385
0.232336
0.232288
0.232241
0.232196
0.232152
0.23211
0.232069
0.232031
0.231995
0.231961
0.23193
0.231901
0.231874
0.231849
0.231826
0.231805
0.231786
0.231768
0.231752
0.231737
0.231724
0.231712
0.231702
0.231694
0.231687
0.231681
0.231676
0.231672
0.231669
0.231667
0.231666
0.231666
0.231666
0.231667
0.231669
0.231672
0.231674
0.231678
0.231683
0.231688