/*--------------------------------*- C++ -*----------------------------------*\
| =========                 |                                                 |
| \\      /  F ield         | OpenFOAM: The Open Source CFD Toolbox           |
|  \\    /   O peration     | Version:  1.7.0                                 |
|   \\  /    A nd           | Web:      www.OpenFOAM.com                      |
|    \\/     M anipulation  |                                                 |
\*---------------------------------------------------------------------------*/
FoamFile
{
    version     2.0;
    format      ascii;
    class       surfaceScalarField;
    location    "0.33";
    object      phi;
}
// * * * * * * * * * * * * * * * * * * * * * * * * * * * * * * * * * * * * * //

dimensions      [1 0 -1 0 0 0 0];

internalField   nonuniform List<scalar> 
10748
(
2.93082e-07
1.79351e-10
2.92825e-07
2.56842e-10
2.92508e-07
3.17649e-10
2.92161e-07
3.47178e-10
2.918e-07
3.60259e-10
2.91432e-07
3.6864e-10
2.91057e-07
3.74226e-10
2.90679e-07
3.78273e-10
2.90297e-07
3.82534e-10
2.89909e-07
3.87394e-10
2.89517e-07
3.92484e-10
2.89119e-07
3.97777e-10
2.88716e-07
4.03516e-10
2.88306e-07
4.09848e-10
2.87889e-07
4.16847e-10
2.87464e-07
4.24686e-10
2.87031e-07
4.33529e-10
2.86587e-07
4.43399e-10
2.86133e-07
4.54378e-10
2.85666e-07
4.6679e-10
2.85185e-07
4.81136e-10
2.84687e-07
4.98054e-10
2.84168e-07
5.18407e-10
2.83625e-07
5.43318e-10
2.83051e-07
5.74009e-10
2.82439e-07
6.12028e-10
2.8178e-07
6.59524e-10
2.8106e-07
7.19247e-10
2.80266e-07
7.94615e-10
2.79376e-07
8.89905e-10
2.78366e-07
1.00997e-09
2.77206e-07
1.16024e-09
2.75859e-07
1.34656e-09
2.74285e-07
1.57444e-09
2.72437e-07
1.84775e-09
2.7027e-07
2.16739e-09
2.67741e-07
2.52927e-09
2.64817e-07
2.92348e-09
2.61482e-07
3.33472e-09
2.57738e-07
3.74402e-09
2.53606e-07
4.13164e-09
2.49126e-07
4.48024e-09
2.44349e-07
4.77694e-09
2.39334e-07
5.01458e-09
2.34142e-07
5.19138e-09
2.28832e-07
5.30993e-09
2.23456e-07
5.37552e-09
2.18061e-07
5.39493e-09
2.12685e-07
5.37546e-09
2.07361e-07
5.32423e-09
2.02113e-07
5.24776e-09
1.96962e-07
5.15149e-09
1.91922e-07
5.04e-09
1.87005e-07
4.91713e-09
1.82219e-07
4.78604e-09
1.7757e-07
4.64919e-09
1.73061e-07
4.50863e-09
1.68695e-07
4.36618e-09
1.64472e-07
4.22337e-09
1.60391e-07
4.08138e-09
1.56449e-07
3.94123e-09
1.52646e-07
3.80374e-09
1.48976e-07
3.66948e-09
1.45437e-07
3.53874e-09
1.42026e-07
3.41172e-09
1.38737e-07
3.28859e-09
1.35568e-07
3.16942e-09
1.32513e-07
3.05418e-09
1.2957e-07
2.94288e-09
1.26735e-07
2.83559e-09
1.24003e-07
2.73226e-09
1.2137e-07
2.63281e-09
1.18833e-07
2.53712e-09
1.16388e-07
2.44509e-09
1.14031e-07
2.35663e-09
1.11759e-07
2.27159e-09
1.0957e-07
2.18982e-09
1.07458e-07
2.11121e-09
1.05423e-07
2.0357e-09
1.0346e-07
1.96314e-09
1.01566e-07
1.89339e-09
9.97398e-08
1.82632e-09
9.7978e-08
1.76185e-09
9.62781e-08
1.69988e-09
9.46378e-08
1.6403e-09
9.30548e-08
1.58297e-09
9.1527e-08
1.5278e-09
9.00523e-08
1.4747e-09
8.86287e-08
1.42361e-09
8.72543e-08
1.37442e-09
8.59273e-08
1.32703e-09
8.46459e-08
1.28135e-09
8.34086e-08
1.23731e-09
8.22138e-08
1.19482e-09
8.10599e-08
1.15384e-09
7.99457e-08
1.11427e-09
7.88696e-08
1.07603e-09
7.78306e-08
1.03903e-09
7.68274e-08
1.00322e-09
7.58588e-08
9.68536e-10
7.49239e-08
9.34925e-10
7.40215e-08
9.02346e-10
7.31508e-08
8.70744e-10
7.23107e-08
8.40052e-10
7.15005e-08
8.10205e-10
7.07194e-08
7.81142e-10
6.99665e-08
7.52798e-10
6.92414e-08
7.25104e-10
6.85435e-08
6.97992e-10
6.78721e-08
6.71398e-10
6.72269e-08
6.45279e-10
6.66074e-08
6.19617e-10
6.60131e-08
5.94433e-10
6.54435e-08
5.69794e-10
6.4898e-08
5.45811e-10
6.43756e-08
5.22632e-10
6.38755e-08
5.00453e-10
6.33964e-08
4.79509e-10
6.29368e-08
4.60047e-10
6.2495e-08
4.42309e-10
6.20689e-08
4.26523e-10
6.16565e-08
4.12832e-10
6.12553e-08
4.0145e-10
6.08636e-08
3.9198e-10
6.04787e-08
3.84988e-10
6.01018e-08
3.76908e-10
5.97276e-08
3.73944e-10
5.9378e-08
3.49128e-10
5.9016e-08
3.61227e-10
2.07792e-10
8.76491e-07
5.78985e-10
8.75741e-07
1.00614e-09
8.74812e-07
1.24652e-09
8.73802e-07
1.35776e-09
8.72743e-07
1.41893e-09
8.7165e-07
1.4616e-09
8.70536e-07
1.48813e-09
8.69408e-07
1.50651e-09
8.68265e-07
1.52572e-09
8.67105e-07
1.54705e-09
8.65929e-07
1.56876e-09
8.64736e-07
1.59103e-09
8.63524e-07
1.6151e-09
8.62292e-07
1.64162e-09
8.61038e-07
1.67101e-09
8.59759e-07
1.70414e-09
8.5845e-07
1.74192e-09
8.57109e-07
1.78459e-09
8.55731e-07
1.83274e-09
8.54309e-07
1.88806e-09
8.52838e-07
1.953e-09
8.51305e-07
2.03056e-09
8.49699e-07
2.1248e-09
8.48001e-07
2.24094e-09
8.46191e-07
2.38458e-09
8.4424e-07
2.56269e-09
8.42115e-07
2.78472e-09
8.39772e-07
3.06234e-09
8.37157e-07
3.40947e-09
8.34204e-07
3.84284e-09
8.30834e-07
4.38015e-09
8.26955e-07
5.03943e-09
8.22463e-07
5.83811e-09
8.17249e-07
6.78958e-09
8.11198e-07
7.89901e-09
8.04205e-07
9.16002e-09
7.96185e-07
1.05498e-08
7.87079e-07
1.2029e-08
7.76869e-07
1.35451e-08
7.65576e-07
1.50368e-08
7.53264e-07
1.64428e-08
7.40035e-07
1.77087e-08
7.26018e-07
1.8793e-08
7.11361e-07
1.96707e-08
6.96217e-07
2.03337e-08
6.80738e-07
2.0788e-08
6.65064e-07
2.10493e-08
6.49319e-07
2.11393e-08
6.33612e-07
2.10826e-08
6.18032e-07
2.0904e-08
6.02653e-07
2.06269e-08
5.87534e-07
2.02712e-08
5.7272e-07
1.98541e-08
5.58248e-07
1.93901e-08
5.44142e-07
1.88916e-08
5.30423e-07
1.83681e-08
5.17104e-07
1.78279e-08
5.04192e-07
1.72781e-08
4.91691e-07
1.6725e-08
4.79598e-07
1.61735e-08
4.67912e-07
1.56277e-08
4.56625e-07
1.50911e-08
4.45728e-07
1.4566e-08
4.35213e-07
1.40537e-08
4.2507e-07
1.35552e-08
4.15287e-07
1.30713e-08
4.05854e-07
1.26024e-08
3.9676e-07
1.21483e-08
3.87993e-07
1.17094e-08
3.79543e-07
1.12858e-08
3.71397e-07
1.08776e-08
3.63546e-07
1.04843e-08
3.55977e-07
1.01057e-08
3.48681e-07
9.74127e-09
3.41647e-07
9.39078e-09
3.34865e-07
9.05363e-09
3.28326e-07
8.7293e-09
3.22019e-07
8.41736e-09
3.15938e-07
8.11757e-09
3.10071e-07
7.82938e-09
3.04412e-07
7.55223e-09
2.98953e-07
7.28566e-09
2.93686e-07
7.02929e-09
2.88603e-07
6.78284e-09
2.83697e-07
6.5458e-09
2.78963e-07
6.31766e-09
2.74392e-07
6.09805e-09
2.6998e-07
5.88664e-09
2.65721e-07
5.68315e-09
2.61608e-07
5.48722e-09
2.57637e-07
5.29842e-09
2.53802e-07
5.11641e-09
2.50098e-07
4.94087e-09
2.46521e-07
4.77152e-09
2.43067e-07
4.60813e-09
2.39731e-07
4.45036e-09
2.36509e-07
4.29784e-09
2.33398e-07
4.15029e-09
2.30394e-07
4.00744e-09
2.27493e-07
3.86906e-09
2.24693e-07
3.73495e-09
2.2199e-07
3.60495e-09
2.19382e-07
3.47882e-09
2.16866e-07
3.35632e-09
2.14439e-07
3.23717e-09
2.12099e-07
3.12115e-09
2.09844e-07
3.00798e-09
2.07671e-07
2.8974e-09
2.0558e-07
2.78912e-09
2.03569e-07
2.68291e-09
2.01636e-07
2.57859e-09
1.9978e-07
2.47609e-09
1.97999e-07
2.37549e-09
1.96292e-07
2.27706e-09
1.94658e-07
2.18126e-09
1.93093e-07
2.08866e-09
1.91594e-07
2.00007e-09
1.90158e-07
1.91641e-09
1.88781e-07
1.83867e-09
1.87457e-07
1.76783e-09
1.8618e-07
1.70479e-09
1.84944e-07
1.65012e-09
1.83742e-07
1.60467e-09
1.82567e-07
1.56691e-09
1.81414e-07
1.53894e-09
1.80284e-07
1.50693e-09
1.79162e-07
1.49451e-09
1.78113e-07
1.39717e-09
1.77031e-07
1.44051e-09
8.37383e-10
1.45111e-06
1.29224e-09
1.44982e-06
2.29289e-09
1.44825e-06
2.81464e-09
1.44657e-06
3.0424e-09
1.44481e-06
3.18034e-09
1.44299e-06
3.2806e-09
1.44113e-06
3.34136e-09
1.43926e-06
3.38413e-09
1.43735e-06
3.43023e-09
1.43542e-06
3.48129e-09
1.43345e-06
3.53296e-09
1.43146e-06
3.58619e-09
1.42943e-06
3.64426e-09
1.42736e-06
3.70899e-09
1.42525e-06
3.78177e-09
1.42309e-06
3.86544e-09
1.42087e-06
3.96294e-09
1.41858e-06
4.07574e-09
1.4162e-06
4.20648e-09
1.41373e-06
4.36061e-09
1.41114e-06
4.54552e-09
1.4084e-06
4.77013e-09
1.40548e-06
5.04604e-09
1.40233e-06
5.38786e-09
1.3989e-06
5.81072e-09
1.39513e-06
6.33284e-09
1.39094e-06
6.97728e-09
1.38623e-06
7.7704e-09
1.3809e-06
8.74083e-09
1.37483e-06
9.91942e-09
1.36787e-06
1.13331e-08
1.35991e-06
1.30026e-08
1.35081e-06
1.49409e-08
1.34045e-06
1.71479e-08
1.32874e-06
1.96063e-08
1.31562e-06
2.22817e-08
1.30105e-06
2.51186e-08
1.28504e-06
2.80447e-08
1.26761e-06
3.09766e-08
1.24882e-06
3.3824e-08
1.22876e-06
3.64975e-08
1.20755e-06
3.89162e-08
1.18533e-06
4.1013e-08
1.16226e-06
4.27424e-08
1.13851e-06
4.40828e-08
1.11426e-06
4.50355e-08
1.08969e-06
4.56193e-08
1.06496e-06
4.58655e-08
1.04023e-06
4.58141e-08
1.01563e-06
4.55083e-08
9.91263e-07
4.49912e-08
9.67234e-07
4.43007e-08
9.43618e-07
4.34708e-08
9.20477e-07
4.25315e-08
8.9786e-07
4.15088e-08
8.75806e-07
4.04231e-08
8.54341e-07
3.92925e-08
8.33486e-07
3.81336e-08
8.1325e-07
3.69602e-08
7.9364e-07
3.57838e-08
7.74654e-07
3.4614e-08
7.56286e-07
3.3459e-08
7.38527e-07
3.23247e-08
7.21366e-07
3.12145e-08
7.0479e-07
3.0131e-08
6.88785e-07
2.90765e-08
6.73335e-07
2.80521e-08
6.58425e-07
2.70583e-08
6.44039e-07
2.60956e-08
6.3016e-07
2.51651e-08
6.16771e-07
2.42668e-08
6.03855e-07
2.34002e-08
5.91396e-07
2.25647e-08
5.79378e-07
2.17597e-08
5.67784e-07
2.09845e-08
5.56599e-07
2.02381e-08
5.45809e-07
1.95195e-08
5.35399e-07
1.88276e-08
5.25354e-07
1.81622e-08
5.15662e-07
1.7522e-08
5.06308e-07
1.69059e-08
4.9728e-07
1.6313e-08
4.88567e-07
1.57424e-08
4.80157e-07
1.51936e-08
4.72037e-07
1.46655e-08
4.64198e-07
1.41569e-08
4.56629e-07
1.36671e-08
4.4932e-07
1.31954e-08
4.42262e-07
1.27412e-08
4.35445e-07
1.23037e-08
4.28862e-07
1.1882e-08
4.22503e-07
1.14753e-08
4.16361e-07
1.10829e-08
4.10428e-07
1.07043e-08
4.04697e-07
1.03389e-08
3.99162e-07
9.9859e-09
3.93815e-07
9.64461e-09
3.88651e-07
9.31434e-09
3.83664e-07
8.99452e-09
3.78848e-07
8.68465e-09
3.74199e-07
8.38427e-09
3.69711e-07
8.09301e-09
3.65379e-07
7.81041e-09
3.61199e-07
7.53585e-09
3.57168e-07
7.26876e-09
3.5328e-07
7.00861e-09
3.49533e-07
6.75484e-09
3.45924e-07
6.50681e-09
3.42449e-07
6.26393e-09
3.39107e-07
6.02563e-09
3.35894e-07
5.79154e-09
3.32809e-07
5.56151e-09
3.2985e-07
5.33573e-09
3.27013e-07
5.11482e-09
3.24296e-07
4.89977e-09
3.21694e-07
4.69193e-09
3.19203e-07
4.49307e-09
3.16816e-07
4.30529e-09
3.14526e-07
4.13083e-09
3.12324e-07
3.97185e-09
3.10201e-07
3.83041e-09
3.08145e-07
3.7078e-09
3.06146e-07
3.60588e-09
3.04192e-07
3.52126e-09
3.02273e-07
3.45856e-09
3.00393e-07
3.38703e-09
2.98527e-07
3.35875e-09
2.9678e-07
3.14175e-09
2.94982e-07
3.23486e-09
1.8882e-09
2.01054e-06
2.36598e-09
2.00865e-06
4.18677e-09
2.0064e-06
5.06558e-09
2.00401e-06
5.42899e-09
2.00152e-06
5.66896e-09
1.99895e-06
5.84613e-09
1.99635e-06
5.94972e-09
1.99371e-06
6.02529e-09
1.99102e-06
6.11121e-09
1.9883e-06
6.20728e-09
1.98553e-06
6.30543e-09
1.9827e-06
6.40904e-09
1.97982e-06
6.52528e-09
1.97687e-06
6.65861e-09
1.97384e-06
6.81318e-09
1.97071e-06
6.99675e-09
1.96746e-06
7.21743e-09
1.96405e-06
7.48078e-09
1.96046e-06
7.79532e-09
1.95665e-06
8.17551e-09
1.95255e-06
8.63941e-09
1.94811e-06
9.20814e-09
1.94325e-06
9.90761e-09
1.93787e-06
1.07685e-08
1.93186e-06
1.18203e-08
1.9251e-06
1.30947e-08
1.91745e-06
1.46274e-08
1.90877e-06
1.64525e-08
1.89891e-06
1.85989e-08
1.88774e-06
2.10897e-08
1.87514e-06
2.39313e-08
1.86103e-06
2.71138e-08
1.84536e-06
3.06141e-08
1.82811e-06
3.43948e-08
1.80932e-06
3.84041e-08
1.78902e-06
4.25833e-08
1.76728e-06
4.68593e-08
1.74417e-06
5.1152e-08
1.71977e-06
5.53774e-08
1.69414e-06
5.94467e-08
1.66737e-06
6.32701e-08
1.63952e-06
6.67607e-08
1.6107e-06
6.98374e-08
1.581e-06
7.24367e-08
1.55056e-06
7.45174e-08
1.51953e-06
7.60648e-08
1.48807e-06
7.70857e-08
1.45633e-06
7.76065e-08
1.42447e-06
7.76697e-08
1.39265e-06
7.73276e-08
1.36101e-06
7.6637e-08
1.32966e-06
7.56503e-08
1.29871e-06
7.44172e-08
1.26826e-06
7.29838e-08
1.23838e-06
7.13916e-08
1.20913e-06
6.96744e-08
1.18056e-06
6.78629e-08
1.1527e-06
6.59856e-08
1.1256e-06
6.40677e-08
1.09925e-06
6.21296e-08
1.07368e-06
6.01891e-08
1.04887e-06
5.8262e-08
1.02484e-06
5.63593e-08
1.00156e-06
5.44884e-08
9.79041e-07
5.26547e-08
9.57254e-07
5.08635e-08
9.36188e-07
4.91177e-08
9.15827e-07
4.74188e-08
8.96154e-07
4.57686e-08
8.7715e-07
4.41696e-08
8.58794e-07
4.26226e-08
8.41067e-07
4.11272e-08
8.23949e-07
3.96826e-08
8.07421e-07
3.82883e-08
7.91461e-07
3.69437e-08
7.76053e-07
3.5647e-08
7.61175e-07
3.43968e-08
7.46811e-07
3.31918e-08
7.32942e-07
3.20315e-08
7.1955e-07
3.09141e-08
7.06618e-07
2.98376e-08
6.9413e-07
2.88006e-08
6.82071e-07
2.78018e-08
6.70424e-07
2.68404e-08
6.59175e-07
2.59145e-08
6.4831e-07
2.50223e-08
6.37814e-07
2.41625e-08
6.27676e-07
2.33339e-08
6.17882e-07
2.25356e-08
6.08419e-07
2.17662e-08
5.99277e-07
2.10242e-08
5.90444e-07
2.03082e-08
5.8191e-07
1.96172e-08
5.73664e-07
1.89501e-08
5.65697e-07
1.83059e-08
5.57999e-07
1.76836e-08
5.50562e-07
1.70815e-08
5.43378e-07
1.64987e-08
5.36438e-07
1.59342e-08
5.29736e-07
1.5387e-08
5.23263e-07
1.48565e-08
5.17014e-07
1.43418e-08
5.10982e-07
1.38424e-08
5.05161e-07
1.3357e-08
4.99545e-07
1.28846e-08
4.94129e-07
1.24245e-08
4.88909e-07
1.19755e-08
4.83879e-07
1.15365e-08
4.79036e-07
1.11066e-08
4.74378e-07
1.06846e-08
4.699e-07
1.02701e-08
4.65599e-07
9.86267e-09
4.61473e-07
9.46271e-09
4.57518e-07
9.07134e-09
4.53729e-07
8.69035e-09
4.50101e-07
8.32212e-09
4.46627e-07
7.96979e-09
4.43298e-07
7.63713e-09
4.40104e-07
7.32809e-09
4.37032e-07
7.04652e-09
4.3407e-07
6.79607e-09
4.31201e-07
6.57903e-09
4.28411e-07
6.39872e-09
4.25685e-07
6.24912e-09
4.23006e-07
6.13833e-09
4.2038e-07
6.01205e-09
4.17775e-07
5.96186e-09
4.15335e-07
5.57841e-09
4.12825e-07
5.74042e-09
3.3572e-09
2.54766e-06
3.95773e-09
2.54502e-06
6.81957e-09
2.54202e-06
8.06708e-09
2.53889e-06
8.55756e-09
2.53564e-06
8.92057e-09
2.5323e-06
9.18743e-09
2.52891e-06
9.33686e-09
2.52548e-06
9.45448e-09
2.522e-06
9.5991e-09
2.51844e-06
9.76476e-09
2.5148e-06
9.93981e-09
2.51108e-06
1.01341e-08
2.50724e-06
1.03626e-08
2.50326e-06
1.06362e-08
2.49911e-06
1.09663e-08
2.49474e-06
1.13718e-08
2.49008e-06
1.18726e-08
2.48508e-06
1.2484e-08
2.47964e-06
1.32275e-08
2.47369e-06
1.4134e-08
2.46709e-06
1.52388e-08
2.45972e-06
1.65793e-08
2.45143e-06
1.81969e-08
2.44206e-06
2.01345e-08
2.43146e-06
2.24229e-08
2.41947e-06
2.50864e-08
2.40595e-06
2.81438e-08
2.3908e-06
3.16e-08
2.37396e-06
3.54441e-08
2.35539e-06
3.96557e-08
2.33513e-06
4.41927e-08
2.31325e-06
4.90014e-08
2.28984e-06
5.40271e-08
2.26502e-06
5.9213e-08
2.23892e-06
6.45009e-08
2.21167e-06
6.984e-08
2.18335e-06
7.51705e-08
2.15407e-06
8.04313e-08
2.12389e-06
8.55615e-08
2.09284e-06
9.04936e-08
2.06096e-06
9.51543e-08
2.02825e-06
9.94655e-08
1.99474e-06
1.03342e-07
1.96047e-06
1.06707e-07
1.92549e-06
1.09498e-07
1.88988e-06
1.11678e-07
1.85373e-06
1.13228e-07
1.81718e-06
1.14155e-07
1.78036e-06
1.14488e-07
1.74342e-06
1.14272e-07
1.70649e-06
1.13566e-07
1.66972e-06
1.12428e-07
1.63322e-06
1.10916e-07
1.59712e-06
1.09088e-07
1.56151e-06
1.07e-07
1.52648e-06
1.04698e-07
1.49212e-06
1.02227e-07
1.45848e-06
9.96294e-08
1.4256e-06
9.69432e-08
1.39353e-06
9.42004e-08
1.36229e-06
9.14294e-08
1.3319e-06
8.86561e-08
1.30236e-06
8.58993e-08
1.27367e-06
8.31718e-08
1.24584e-06
8.04839e-08
1.21886e-06
7.78458e-08
1.19271e-06
7.52632e-08
1.16739e-06
7.27402e-08
1.14288e-06
7.02809e-08
1.11916e-06
6.78902e-08
1.09621e-06
6.55705e-08
1.07402e-06
6.33221e-08
1.05256e-06
6.11449e-08
1.0318e-06
5.90389e-08
1.01174e-06
5.70036e-08
9.92354e-07
5.50373e-08
9.73613e-07
5.31381e-08
9.555e-07
5.13045e-08
9.37995e-07
4.95364e-08
9.21078e-07
4.78313e-08
9.04729e-07
4.61865e-08
8.8893e-07
4.46002e-08
8.73661e-07
4.30706e-08
8.58905e-07
4.15967e-08
8.44643e-07
4.01759e-08
8.3086e-07
3.88056e-08
8.17538e-07
3.74838e-08
8.04663e-07
3.62091e-08
7.92219e-07
3.498e-08
7.8019e-07
3.37946e-08
7.68564e-07
3.26506e-08
7.57326e-07
3.15462e-08
7.46464e-07
3.04795e-08
7.35965e-07
2.94491e-08
7.25817e-07
2.84538e-08
7.16009e-07
2.74915e-08
7.0653e-07
2.65603e-08
6.9737e-07
2.56584e-08
6.8852e-07
2.47844e-08
6.7997e-07
2.39369e-08
6.71712e-07
2.31147e-08
6.63737e-07
2.2317e-08
6.56036e-07
2.15425e-08
6.48604e-07
2.07895e-08
6.41432e-07
2.00565e-08
6.34514e-07
1.93422e-08
6.27844e-07
1.86449e-08
6.21418e-07
1.7963e-08
6.1523e-07
1.72949e-08
6.09276e-07
1.66392e-08
6.03552e-07
1.59947e-08
5.98054e-07
1.53611e-08
5.92779e-07
1.47391e-08
5.87722e-07
1.41303e-08
5.82877e-07
1.35376e-08
5.78237e-07
1.29648e-08
5.73794e-07
1.24167e-08
5.69535e-07
1.18993e-08
5.65449e-07
1.14186e-08
5.61518e-07
1.09808e-08
5.57727e-07
1.05915e-08
5.54055e-07
1.02543e-08
5.50483e-07
9.97431e-09
5.46992e-07
9.74221e-09
5.4356e-07
9.57052e-09
5.40197e-07
9.37482e-09
5.3686e-07
9.29709e-09
5.33733e-07
8.70107e-09
5.30515e-07
8.95148e-09
5.24079e-09
3.05387e-06
6.11633e-09
3.0504e-06
1.02846e-08
3.04663e-06
1.18411e-08
3.04275e-06
1.24372e-08
3.03872e-06
1.29555e-08
3.03458e-06
1.33263e-08
3.03038e-06
1.35299e-08
3.02612e-06
1.37165e-08
3.02175e-06
1.39675e-08
3.01725e-06
1.42671e-08
3.01259e-06
1.4604e-08
3.00772e-06
1.50039e-08
3.00258e-06
1.54977e-08
2.99711e-06
1.61102e-08
2.99121e-06
1.68684e-08
2.98476e-06
1.78126e-08
2.97766e-06
1.89824e-08
2.96973e-06
2.04069e-08
2.96084e-06
2.21224e-08
2.9508e-06
2.41736e-08
2.93943e-06
2.6602e-08
2.92657e-06
2.94407e-08
2.91205e-06
3.27158e-08
2.89575e-06
3.64429e-08
2.87756e-06
4.06056e-08
2.85748e-06
4.51733e-08
2.83551e-06
5.01082e-08
2.81175e-06
5.53603e-08
2.78633e-06
6.08722e-08
2.75939e-06
6.6595e-08
2.73112e-06
7.24672e-08
2.70169e-06
7.84299e-08
2.67128e-06
8.4438e-08
2.64004e-06
9.04534e-08
2.6081e-06
9.64411e-08
2.57556e-06
1.02381e-07
2.54249e-06
1.0824e-07
2.50894e-06
1.13984e-07
2.47491e-06
1.19581e-07
2.44042e-06
1.24988e-07
2.40542e-06
1.30151e-07
2.36988e-06
1.35008e-07
2.33374e-06
1.39474e-07
2.29698e-06
1.43465e-07
2.25958e-06
1.469e-07
2.22154e-06
1.49719e-07
2.18289e-06
1.51873e-07
2.14371e-06
1.53336e-07
2.10409e-06
1.54111e-07
2.06414e-06
1.54224e-07
2.02398e-06
1.53722e-07
1.98376e-06
1.52653e-07
1.9436e-06
1.51076e-07
1.90363e-06
1.49052e-07
1.86399e-06
1.46647e-07
1.82477e-06
1.43915e-07
1.78608e-06
1.40914e-07
1.74801e-06
1.37698e-07
1.71064e-06
1.34322e-07
1.67401e-06
1.30828e-07
1.63818e-06
1.27258e-07
1.60318e-06
1.23651e-07
1.56905e-06
1.20034e-07
1.53579e-06
1.16428e-07
1.50343e-06
1.12851e-07
1.47195e-06
1.09319e-07
1.44137e-06
1.05842e-07
1.41168e-06
1.02429e-07
1.38288e-06
9.90878e-08
1.35494e-06
9.58269e-08
1.32786e-06
9.26515e-08
1.30162e-06
8.95636e-08
1.2762e-06
8.65643e-08
1.25158e-06
8.36551e-08
1.22775e-06
8.08366e-08
1.20468e-06
7.81072e-08
1.18235e-06
7.54653e-08
1.16075e-06
7.29097e-08
1.13984e-06
7.04408e-08
1.11962e-06
6.80558e-08
1.10005e-06
6.57516e-08
1.08113e-06
6.3526e-08
1.06282e-06
6.13769e-08
1.04512e-06
5.93036e-08
1.02799e-06
5.73025e-08
1.01142e-06
5.53703e-08
9.95403e-07
5.35048e-08
9.79908e-07
5.17037e-08
9.64923e-07
4.99656e-08
9.5043e-07
4.82879e-08
9.36413e-07
4.66674e-08
9.22857e-07
4.51017e-08
9.09748e-07
4.35885e-08
8.97072e-07
4.21257e-08
8.84814e-07
4.07117e-08
8.72961e-07
3.9344e-08
8.61502e-07
3.80195e-08
8.50425e-07
3.6736e-08
8.39717e-07
3.54915e-08
8.2937e-07
3.42841e-08
8.19373e-07
3.31123e-08
8.09715e-07
3.19747e-08
8.00387e-07
3.08697e-08
7.91382e-07
2.97949e-08
7.8269e-07
2.87483e-08
7.74304e-07
2.77278e-08
7.66218e-07
2.67313e-08
7.58424e-07
2.57564e-08
7.50919e-07
2.48008e-08
7.43696e-07
2.38626e-08
7.36751e-07
2.29402e-08
7.3008e-07
2.20332e-08
7.23678e-07
2.11425e-08
7.1754e-07
2.02708e-08
7.11659e-07
1.9422e-08
7.06025e-07
1.86015e-08
7.0063e-07
1.78166e-08
6.95458e-07
1.70756e-08
6.90494e-07
1.63874e-08
6.85719e-07
1.57607e-08
6.81112e-07
1.52036e-08
6.76649e-07
1.47214e-08
6.72306e-07
1.43213e-08
6.6806e-07
1.39899e-08
6.63887e-07
1.37452e-08
6.59795e-07
1.34661e-08
6.55733e-07
1.33558e-08
6.51927e-07
1.2502e-08
6.4801e-07
1.28606e-08
7.53453e-09
3.51923e-06
9.2528e-09
3.51468e-06
1.48335e-08
3.51005e-06
1.64793e-08
3.50534e-06
1.7138e-08
3.50045e-06
1.78529e-08
3.49542e-06
1.83489e-08
3.4903e-06
1.86499e-08
3.48502e-06
1.90021e-08
3.47948e-06
1.95109e-08
3.4736e-06
2.0147e-08
3.46729e-06
2.09108e-08
3.46043e-06
2.18588e-08
3.45288e-06
2.30481e-08
3.44447e-06
2.45238e-08
3.43501e-06
2.63312e-08
3.42429e-06
2.85315e-08
3.4121e-06
3.1172e-08
3.39824e-06
3.42696e-08
3.38252e-06
3.78398e-08
3.3648e-06
4.18937e-08
3.34498e-06
4.64218e-08
3.32303e-06
5.13925e-08
3.29898e-06
5.67628e-08
3.27294e-06
6.24846e-08
3.24507e-06
6.84756e-08
3.21558e-06
7.46602e-08
3.18472e-06
8.09782e-08
3.1527e-06
8.73738e-08
3.11978e-06
9.37991e-08
3.08614e-06
1.00233e-07
3.05197e-06
1.06638e-07
3.01742e-06
1.12984e-07
2.9826e-06
1.19257e-07
2.94761e-06
1.25449e-07
2.91249e-06
1.31554e-07
2.87729e-06
1.37581e-07
2.84201e-06
1.4352e-07
2.80664e-06
1.49357e-07
2.77114e-06
1.55081e-07
2.73546e-06
1.60669e-07
2.69952e-06
1.66087e-07
2.66324e-06
1.71285e-07
2.62653e-06
1.76183e-07
2.5893e-06
1.80692e-07
2.55148e-06
1.8472e-07
2.51301e-06
1.88187e-07
2.47387e-06
1.91014e-07
2.43406e-06
1.93141e-07
2.39364e-06
1.94537e-07
2.35267e-06
1.95199e-07
2.31124e-06
1.95149e-07
2.26948e-06
1.94415e-07
2.22751e-06
1.93044e-07
2.18547e-06
1.91093e-07
2.14349e-06
1.88628e-07
2.1017e-06
1.85707e-07
2.06022e-06
1.82394e-07
2.01916e-06
1.78755e-07
1.97862e-06
1.74858e-07
1.93869e-06
1.70758e-07
1.89944e-06
1.66509e-07
1.86093e-06
1.62163e-07
1.82321e-06
1.5776e-07
1.7863e-06
1.53329e-07
1.75026e-06
1.48897e-07
1.71509e-06
1.44489e-07
1.68081e-06
1.40123e-07
1.64742e-06
1.35811e-07
1.61494e-06
1.31567e-07
1.58337e-06
1.27406e-07
1.55268e-06
1.23337e-07
1.52288e-06
1.19364e-07
1.49395e-06
1.15492e-07
1.46588e-06
1.11723e-07
1.43866e-06
1.0806e-07
1.41226e-06
1.04504e-07
1.38668e-06
1.01053e-07
1.36188e-06
9.77063e-08
1.33785e-06
9.44665e-08
1.31458e-06
9.13305e-08
1.29204e-06
8.82949e-08
1.2702e-06
8.53577e-08
1.24906e-06
8.25169e-08
1.2286e-06
7.9772e-08
1.20878e-06
7.71192e-08
1.1896e-06
7.45541e-08
1.17103e-06
7.20745e-08
1.15305e-06
6.96777e-08
1.13565e-06
6.73622e-08
1.11882e-06
6.51249e-08
1.10252e-06
6.29618e-08
1.08676e-06
6.08699e-08
1.0715e-06
5.88464e-08
1.05673e-06
5.68887e-08
1.04245e-06
5.49949e-08
1.02863e-06
5.31616e-08
1.01527e-06
5.13852e-08
1.00234e-06
4.96624e-08
9.89842e-07
4.79909e-08
9.77757e-07
4.63683e-08
9.66077e-07
4.47926e-08
9.54789e-07
4.3262e-08
9.43885e-07
4.17744e-08
9.33353e-07
4.03268e-08
9.23184e-07
3.89163e-08
9.13372e-07
3.75403e-08
9.03907e-07
3.6196e-08
8.94783e-07
3.48803e-08
8.85994e-07
3.35901e-08
8.77535e-07
3.23227e-08
8.69399e-07
3.10763e-08
8.61584e-07
2.98504e-08
8.54082e-07
2.86462e-08
8.46888e-07
2.74674e-08
8.39994e-07
2.63195e-08
8.3339e-07
2.52099e-08
8.27063e-07
2.41484e-08
8.20997e-07
2.31464e-08
8.15174e-07
2.2216e-08
8.09572e-07
2.1369e-08
8.04164e-07
2.06165e-08
7.98926e-07
1.99654e-08
7.93825e-07
1.94258e-08
7.88839e-07
1.89795e-08
7.83935e-07
1.86505e-08
7.79126e-07
1.82748e-08
7.74351e-07
1.81274e-08
7.69875e-07
1.69717e-08
7.65267e-07
1.74588e-08
1.0233e-08
3.92943e-06
1.35847e-08
3.92367e-06
2.05904e-08
3.91817e-06
2.19846e-08
3.91254e-06
2.27616e-08
3.90658e-06
2.38219e-08
3.90033e-06
2.45904e-08
3.89375e-06
2.52322e-08
3.88663e-06
2.61258e-08
3.87874e-06
2.73971e-08
3.86989e-06
2.89952e-08
3.85987e-06
3.09395e-08
3.8484e-06
3.33188e-08
3.83525e-06
3.61991e-08
3.82016e-06
3.96132e-08
3.80292e-06
4.35749e-08
3.78335e-06
4.81062e-08
3.76133e-06
5.31867e-08
3.73686e-06
5.8736e-08
3.71003e-06
6.4677e-08
3.68098e-06
7.09353e-08
3.64998e-06
7.74265e-08
3.61731e-06
8.40655e-08
3.58329e-06
9.07861e-08
3.54822e-06
9.75487e-08
3.51242e-06
1.04282e-07
3.47614e-06
1.10943e-07
3.4396e-06
1.17518e-07
3.40298e-06
1.23991e-07
3.36643e-06
1.30355e-07
3.33003e-06
1.36635e-07
3.29385e-06
1.42819e-07
3.25793e-06
1.48902e-07
3.2223e-06
1.54894e-07
3.18694e-06
1.60807e-07
3.15184e-06
1.66648e-07
3.11697e-06
1.72451e-07
3.08228e-06
1.78213e-07
3.0477e-06
1.83932e-07
3.01317e-06
1.8961e-07
2.9786e-06
1.95237e-07
2.94389e-06
2.00794e-07
2.90894e-06
2.06242e-07
2.87361e-06
2.11506e-07
2.83781e-06
2.16497e-07
2.80141e-06
2.21116e-07
2.76432e-06
2.25271e-07
2.72648e-06
2.28857e-07
2.68784e-06
2.31782e-07
2.6484e-06
2.33979e-07
2.60819e-06
2.35411e-07
2.56726e-06
2.36072e-07
2.52572e-06
2.3596e-07
2.48367e-06
2.35098e-07
2.44123e-06
2.3353e-07
2.39855e-06
2.31314e-07
2.35575e-06
2.28504e-07
2.31298e-06
2.25165e-07
2.27036e-06
2.2137e-07
2.22802e-06
2.17197e-07
2.18607e-06
2.12711e-07
2.1446e-06
2.07979e-07
2.1037e-06
2.03066e-07
2.06343e-06
1.98024e-07
2.02387e-06
1.92893e-07
1.98506e-06
1.87709e-07
1.94704e-06
1.82508e-07
1.90985e-06
1.77317e-07
1.8735e-06
1.72154e-07
1.83803e-06
1.67041e-07
1.80344e-06
1.62e-07
1.76973e-06
1.57045e-07
1.73691e-06
1.52185e-07
1.70497e-06
1.47428e-07
1.67391e-06
1.4278e-07
1.64373e-06
1.38247e-07
1.6144e-06
1.33832e-07
1.58592e-06
1.29534e-07
1.55827e-06
1.25355e-07
1.53144e-06
1.21299e-07
1.5054e-06
1.17364e-07
1.48015e-06
1.13546e-07
1.45566e-06
1.09845e-07
1.43192e-06
1.06258e-07
1.40891e-06
1.02786e-07
1.3866e-06
9.94254e-08
1.36499e-06
9.61707e-08
1.34404e-06
9.30198e-08
1.32375e-06
8.99701e-08
1.30409e-06
8.702e-08
1.28505e-06
8.41662e-08
1.26661e-06
8.1404e-08
1.24875e-06
7.87298e-08
1.23145e-06
7.61404e-08
1.21471e-06
7.36329e-08
1.1985e-06
7.1205e-08
1.18281e-06
6.88527e-08
1.16762e-06
6.65715e-08
1.15293e-06
6.43575e-08
1.13871e-06
6.22077e-08
1.12496e-06
6.01194e-08
1.11166e-06
5.80899e-08
1.09881e-06
5.61173e-08
1.08638e-06
5.41989e-08
1.07438e-06
5.23308e-08
1.06278e-06
5.05096e-08
1.05159e-06
4.87319e-08
1.04079e-06
4.69941e-08
1.03038e-06
4.52923e-08
1.02035e-06
4.36227e-08
1.01069e-06
4.19819e-08
1.0014e-06
4.03676e-08
9.92473e-07
3.87793e-08
9.83903e-07
3.72186e-08
9.75683e-07
3.56905e-08
9.67804e-07
3.42024e-08
9.60255e-07
3.27638e-08
9.53022e-07
3.13876e-08
9.46085e-07
3.00887e-08
9.39425e-07
2.8883e-08
9.33015e-07
2.77858e-08
9.26827e-07
2.68115e-08
9.20829e-07
2.59691e-08
9.14988e-07
2.52717e-08
9.09275e-07
2.46956e-08
9.03655e-07
2.42721e-08
8.98141e-07
2.37877e-08
8.92665e-07
2.35995e-08
8.87531e-07
2.20991e-08
8.82243e-07
2.27354e-08
1.33301e-08
4.26377e-06
2.04006e-08
4.2563e-06
2.80655e-08
4.24951e-06
2.8776e-08
4.24216e-06
3.01102e-08
4.2339e-06
3.20754e-08
4.22471e-06
3.37845e-08
4.21425e-06
3.56904e-08
4.20209e-06
3.82922e-08
4.1878e-06
4.16812e-08
4.17109e-06
4.57022e-08
4.15171e-06
5.03262e-08
4.12945e-06
5.55791e-08
4.10423e-06
6.14144e-08
4.07611e-06
6.77306e-08
4.04529e-06
7.44023e-08
4.01204e-06
8.13496e-08
3.97677e-06
8.84622e-08
3.93991e-06
9.55893e-08
3.90194e-06
1.02645e-07
3.8633e-06
1.09584e-07
3.82435e-06
1.16373e-07
3.78542e-06
1.22991e-07
3.74677e-06
1.29445e-07
3.70854e-06
1.35773e-07
3.67088e-06
1.41946e-07
3.63386e-06
1.4797e-07
3.59751e-06
1.53869e-07
3.56185e-06
1.59655e-07
3.52686e-06
1.6534e-07
3.49252e-06
1.7098e-07
3.45877e-06
1.76567e-07
3.42557e-06
1.82099e-07
3.39287e-06
1.87598e-07
3.3606e-06
1.93079e-07
3.32869e-06
1.98553e-07
3.29707e-06
2.04069e-07
3.26566e-06
2.0962e-07
3.23439e-06
2.15208e-07
3.20315e-06
2.20845e-07
3.17186e-06
2.26526e-07
3.14041e-06
2.32244e-07
3.10868e-06
2.37972e-07
3.07655e-06
2.43639e-07
3.04388e-06
2.49159e-07
3.01057e-06
2.54431e-07
2.97648e-06
2.59358e-07
2.94152e-06
2.63818e-07
2.90561e-06
2.67688e-07
2.86872e-06
2.70872e-07
2.83083e-06
2.73299e-07
2.79197e-06
2.74931e-07
2.7522e-06
2.75731e-07
2.71161e-06
2.75691e-07
2.67031e-06
2.74834e-07
2.62842e-06
2.73205e-07
2.58608e-06
2.70843e-07
2.54344e-06
2.67807e-07
2.50063e-06
2.64175e-07
2.4578e-06
2.60027e-07
2.41508e-06
2.55436e-07
2.37258e-06
2.50478e-07
2.33041e-06
2.45233e-07
2.28867e-06
2.39763e-07
2.24744e-06
2.34119e-07
2.20681e-06
2.28347e-07
2.16682e-06
2.22496e-07
2.12753e-06
2.16601e-07
2.089e-06
2.10691e-07
2.05124e-06
2.04794e-07
2.0143e-06
1.98942e-07
1.97819e-06
1.93156e-07
1.94293e-06
1.8745e-07
1.90852e-06
1.81837e-07
1.87497e-06
1.76328e-07
1.84228e-06
1.70935e-07
1.81045e-06
1.65661e-07
1.77948e-06
1.6051e-07
1.74935e-06
1.55485e-07
1.72005e-06
1.50594e-07
1.69158e-06
1.45836e-07
1.66392e-06
1.41208e-07
1.63705e-06
1.3671e-07
1.61097e-06
1.32343e-07
1.58565e-06
1.28107e-07
1.56107e-06
1.23998e-07
1.53723e-06
1.20013e-07
1.5141e-06
1.16148e-07
1.49167e-06
1.12401e-07
1.46992e-06
1.08771e-07
1.44883e-06
1.05256e-07
1.42839e-06
1.01848e-07
1.40857e-06
9.85453e-08
1.38937e-06
9.53435e-08
1.37076e-06
9.22395e-08
1.35274e-06
8.92311e-08
1.33528e-06
8.63137e-08
1.31837e-06
8.34816e-08
1.30199e-06
8.07305e-08
1.28614e-06
7.8057e-08
1.27081e-06
7.54577e-08
1.25597e-06
7.29296e-08
1.24161e-06
7.04707e-08
1.22773e-06
6.80775e-08
1.21432e-06
6.57454e-08
1.20136e-06
6.34703e-08
1.18884e-06
6.1248e-08
1.17676e-06
5.90742e-08
1.16511e-06
5.69442e-08
1.15388e-06
5.48533e-08
1.14306e-06
5.27973e-08
1.13266e-06
5.07736e-08
1.12266e-06
4.87816e-08
1.11306e-06
4.68238e-08
1.10385e-06
4.49063e-08
1.09501e-06
4.30387e-08
1.08655e-06
4.12332e-08
1.07844e-06
3.95061e-08
1.07066e-06
3.78763e-08
1.06318e-06
3.63639e-08
1.05599e-06
3.49881e-08
1.04904e-06
3.37671e-08
1.0423e-06
3.27124e-08
1.03574e-06
3.18403e-08
1.02932e-06
3.11211e-08
1.023e-06
3.05938e-08
1.0168e-06
2.99898e-08
1.01063e-06
2.9758e-08
1.00485e-06
2.78715e-08
9.98897e-07
2.8678e-08
1.68184e-08
4.48048e-06
3.12856e-08
4.47017e-06
3.8376e-08
4.46015e-06
3.87888e-08
4.44758e-06
4.26828e-08
4.43206e-06
4.75992e-08
4.4134e-06
5.24436e-08
4.39113e-06
5.79598e-08
4.36492e-06
6.45017e-08
4.33472e-06
7.1876e-08
4.30087e-06
7.95576e-08
4.26386e-06
8.73372e-08
4.22434e-06
9.5099e-08
4.18305e-06
1.02699e-07
4.14076e-06
1.1002e-07
4.09818e-06
1.16985e-07
4.05587e-06
1.23658e-07
4.01426e-06
1.30066e-07
3.97368e-06
1.36167e-07
3.93433e-06
1.41999e-07
3.8963e-06
1.47617e-07
3.85962e-06
1.53057e-07
3.82427e-06
1.58343e-07
3.79019e-06
1.63519e-07
3.7573e-06
1.68668e-07
3.7255e-06
1.73746e-07
3.69471e-06
1.78768e-07
3.66481e-06
1.83762e-07
3.63573e-06
1.88738e-07
3.60738e-06
1.93697e-07
3.57964e-06
1.98717e-07
3.55244e-06
2.03774e-07
3.52568e-06
2.08857e-07
3.49929e-06
2.13989e-07
3.47318e-06
2.19183e-07
3.44729e-06
2.24442e-07
3.42153e-06
2.29833e-07
3.39581e-06
2.35339e-07
3.37005e-06
2.40962e-07
3.34418e-06
2.46718e-07
3.3181e-06
2.52606e-07
3.29171e-06
2.5863e-07
3.26491e-06
2.64777e-07
3.23757e-06
2.70978e-07
3.20957e-06
2.77154e-07
3.1808e-06
2.83206e-07
3.15112e-06
2.89039e-07
3.12041e-06
2.9452e-07
3.0886e-06
2.99505e-07
3.0556e-06
3.03871e-07
3.02138e-06
3.07517e-07
2.98594e-06
3.10377e-07
2.94929e-06
3.12374e-07
2.91152e-06
3.13468e-07
2.8727e-06
3.13654e-07
2.83295e-06
3.12958e-07
2.79239e-06
3.11398e-07
2.75118e-06
3.09021e-07
2.70945e-06
3.059e-07
2.66736e-06
3.02116e-07
2.62505e-06