/*--------------------------------*- C++ -*----------------------------------*\
| =========                 |                                                 |
| \\      /  F ield         | OpenFOAM: The Open Source CFD Toolbox           |
|  \\    /   O peration     | Version:  1.7.0                                 |
|   \\  /    A nd           | Web:      www.OpenFOAM.com                      |
|    \\/     M anipulation  |                                                 |
\*---------------------------------------------------------------------------*/
FoamFile
{
    version     2.0;
    format      ascii;
    class       volScalarField;
    location    "0.33";
    object      rho;
}
// * * * * * * * * * * * * * * * * * * * * * * * * * * * * * * * * * * * * * //

dimensions      [1 -3 0 0 0 0 0];

internalField   nonuniform List<scalar> 
5460
(
1.26193
1.26195
1.26196
1.26198
1.26201
1.26205
1.26211
1.26218
1.26225
1.26235
1.26246
1.26261
1.26281
1.26306
1.26332
1.26344
1.2634
1.26333
1.26329
1.26328
1.26335
1.26341
1.2634
1.26341
1.26342
1.26345
1.26352
1.26369
1.26392
1.2638
1.26383
1.26394
1.26396
1.26391
1.26371
1.2638
1.26311
1.26287
1.26215
1.26125
1.26026
1.25928
1.25857
1.25784
1.25576
1.25379
1.25224
1.25054
1.24864
1.24709
1.24527
1.2436
1.24193
1.24026
1.23869
1.23718
1.23558
1.23417
1.23243
1.23128
1.22953
1.22791
1.22709
1.22529
1.22422
1.22242
1.22116
1.22055
1.22003
1.21831
1.21721
1.21585
1.21526
1.21396
1.21317
1.21243
1.21246
1.21107
1.2105
1.21023
1.20925
1.20862
1.2074
1.20717
1.20645
1.20539
1.20512
1.20435
1.20387
1.20343
1.20299
1.20235
1.20164
1.20085
1.2004
1.20023
1.19945
1.19928
1.19842
1.19821
1.19759
1.19708
1.19687
1.1963
1.19585
1.19569
1.19485
1.19417
1.1942
1.19388
1.19317
1.19243
1.19225
1.19195
1.19156
1.19109
1.19073
1.19017
1.19001
1.18963
1.18918
1.18856
1.18814
1.18765
1.18743
1.18712
1.18682
1.18634
1.18585
1.18546
1.26193
1.26194
1.26198
1.26201
1.26205
1.26207
1.2621
1.26217
1.26226
1.26237
1.2625
1.26262
1.26282
1.2631
1.26338
1.26386
1.26363
1.26342
1.26331
1.26327
1.26333
1.26343
1.26342
1.26337
1.26337
1.26339
1.26346
1.26348
1.26351
1.26355
1.26362
1.26369
1.26344
1.2632
1.26295
1.26265
1.26223
1.26172
1.26103
1.26027
1.25945
1.25847
1.25731
1.25618
1.2546
1.25292
1.25131
1.24959
1.24794
1.24637
1.24461
1.24287
1.2411
1.23946
1.23782
1.23621
1.23468
1.23335
1.23185
1.23037
1.22876
1.22737
1.22608
1.22447
1.22331
1.22176
1.22052
1.21963
1.21873
1.21742
1.21641
1.21518
1.21435
1.21317
1.21222
1.21161
1.21118
1.21012
1.20947
1.209
1.2081
1.20742
1.20649
1.20591
1.20518
1.20439
1.20399
1.2033
1.20279
1.20222
1.20179
1.20123
1.20052
1.19983
1.19941
1.1991
1.19844
1.19808
1.19741
1.19712
1.19652
1.19608
1.19582
1.19536
1.1949
1.19462
1.19393
1.19337
1.19319
1.19287
1.19225
1.19166
1.19139
1.19104
1.19066
1.19025
1.18988
1.18941
1.1892
1.18884
1.18841
1.1879
1.18749
1.18704
1.18679
1.18652
1.18617
1.18578
1.18532
1.18497
1.26193
1.26194
1.26196
1.26198
1.26201
1.26205
1.26213
1.26218
1.26223
1.2623
1.26232
1.26239
1.26251
1.26268
1.26288
1.26306
1.26311
1.26318
1.26319
1.26316
1.26318
1.26328
1.26342
1.26335
1.26328
1.26323
1.26322
1.26319
1.2632
1.26323
1.26307
1.26289
1.26268
1.26234
1.26198
1.26148
1.2609
1.26021
1.25942
1.25862
1.25774
1.25668
1.25552
1.25435
1.25292
1.25135
1.24978
1.24816
1.24659
1.24503
1.24331
1.24158
1.23988
1.23825
1.23666
1.23509
1.23365
1.23232
1.23089
1.22936
1.22785
1.22653
1.22518
1.2237
1.22246
1.22108
1.21988
1.21888
1.21785
1.21666
1.21574
1.2146
1.21362
1.21249
1.21155
1.21091
1.21032
1.2094
1.20873
1.20816
1.20732
1.20659
1.20578
1.20512
1.20438
1.20373
1.20324
1.20259
1.20203
1.20144
1.201
1.20042
1.19979
1.19913
1.19868
1.19829
1.19776
1.19733
1.19674
1.1964
1.19581
1.19542
1.19513
1.19472
1.19423
1.19392
1.19333
1.19283
1.19255
1.19223
1.19165
1.19114
1.19083
1.19047
1.19009
1.1897
1.18935
1.18893
1.18868
1.18834
1.18792
1.18746
1.18706
1.18665
1.18639
1.18613
1.18578
1.18539
1.18498
1.18465
1.26193
1.26193
1.26194
1.26196
1.26199
1.262
1.26203
1.26206
1.2621
1.26214
1.26219
1.26226
1.26233
1.26243
1.26255
1.26267
1.26278
1.26286
1.26288
1.26292
1.26298
1.26308
1.26327
1.26333
1.26314
1.26297
1.26286
1.26268
1.26255
1.26242
1.26215
1.26179
1.2614
1.26088
1.26029
1.25965
1.259
1.25812
1.25723
1.25632
1.25538
1.25432
1.25314
1.25198
1.25063
1.24918
1.24772
1.24622
1.24475
1.24323
1.24163
1.23996
1.23838
1.23679
1.23528
1.23381
1.23245
1.23118
1.22979
1.22824
1.22683
1.22553
1.22425
1.22285
1.22164
1.2203
1.21914
1.21809
1.21702
1.21592
1.21496
1.21393
1.21289
1.2118
1.21094
1.21024
1.20954
1.20874
1.20806
1.20741
1.20661
1.20588
1.20514
1.20445
1.20373
1.20318
1.20262
1.20199
1.2014
1.20082
1.20036
1.19979
1.19919
1.19859
1.19812
1.19769
1.19721
1.19674
1.19621
1.19582
1.19528
1.19489
1.1946
1.19419
1.19372
1.19339
1.19286
1.19239
1.19206
1.19172
1.1912
1.19071
1.19039
1.19002
1.18965
1.18928
1.18893
1.18856
1.18827
1.18795
1.18755
1.18712
1.18674
1.18636
1.18607
1.18581
1.18547
1.1851
1.18473
1.18441
1.26193
1.26194
1.26195
1.26197
1.26199
1.26203
1.26205
1.26207
1.26208
1.26211
1.26214
1.26219
1.26225
1.26232
1.2624
1.26252
1.26261
1.26261
1.26262
1.26265
1.26266
1.26262
1.26259
1.26251
1.26237
1.26217
1.26195
1.26169
1.26139
1.26099
1.26053
1.26004
1.25936
1.25863
1.25787
1.25708
1.25624
1.25532
1.25442
1.25344
1.25249
1.25134
1.25021
1.24909
1.24792
1.24655
1.24518
1.24381
1.24248
1.24105
1.23955
1.23804
1.23656
1.23509
1.23366
1.2323
1.23101
1.22978
1.22846
1.22697
1.22566
1.22438
1.22317
1.22185
1.22063
1.21941
1.21828
1.21722
1.21614
1.21513
1.21415
1.21318
1.21214
1.21112
1.21029
1.20958
1.20883
1.20808
1.20742
1.20672
1.20595
1.20525
1.20456
1.20385
1.20314
1.20263
1.20204
1.20143
1.20083
1.20025
1.19978
1.19924
1.19866
1.19809
1.19762
1.19715
1.19671
1.19624
1.19574
1.19533
1.19481
1.19444
1.19412
1.19373
1.19327
1.19293
1.19244
1.19199
1.19163
1.19127
1.19081
1.19034
1.19001
1.18964
1.18928
1.18892
1.18858
1.18823
1.18793
1.18763
1.18725
1.18683
1.18645
1.1861
1.18581
1.18555
1.1852
1.18486
1.1845
1.1842
1.26193
1.26194
1.26196
1.26201
1.26209
1.26225
1.26226
1.26221
1.26215
1.26213
1.26213
1.26216
1.26218
1.2622
1.26223
1.26225
1.26228
1.26229
1.26225
1.26219
1.26211
1.26197
1.26179
1.26154
1.26122
1.26083
1.26039
1.2599
1.25937
1.2588
1.25821
1.25749
1.25656
1.25565
1.25477
1.25386
1.25292
1.25197
1.25104
1.25005
1.24905
1.24797
1.24691
1.24589
1.24477
1.24354
1.24231
1.24105
1.23981
1.23853
1.2372
1.23584
1.23449
1.23316
1.23183
1.23056
1.22938
1.22821
1.22693
1.22556
1.22431
1.2231
1.22195
1.22072
1.21954
1.21841
1.21732
1.2163
1.21525
1.21427
1.2133
1.21237
1.21136
1.21042
1.20961
1.20888
1.20813
1.20743
1.20676
1.20604
1.20531
1.20464
1.20398
1.20326
1.20257
1.20206
1.20148
1.20088
1.20028
1.19972
1.19924
1.19872
1.19817
1.19763
1.19714
1.19667
1.19625
1.19577
1.19529
1.19488
1.19438
1.19403
1.19368
1.1933
1.19286
1.19252
1.19205
1.19161
1.19124
1.19089
1.19045
1.19
1.18966
1.1893
1.18896
1.1886
1.18826
1.18794
1.18764
1.18734
1.18696
1.18656
1.1862
1.18587
1.18557
1.18531
1.18498
1.18463
1.1843
1.184
1.26193
1.26194
1.26195
1.26196
1.26199
1.26202
1.26205
1.26208
1.26211
1.26213
1.26215
1.26217
1.26217
1.26211
1.26204
1.26196
1.26185
1.26172
1.26157
1.26135
1.26109
1.26073
1.26026
1.25977
1.25922
1.25854
1.25782
1.25709
1.25637
1.25565
1.25477
1.25388
1.2529
1.25192
1.25097
1.25
1.24905
1.24815
1.24723
1.24632
1.24533
1.24432
1.24332
1.24235
1.24134
1.24028
1.23918
1.23806
1.23695
1.23579
1.23463
1.23343
1.23218
1.231
1.22979
1.22862
1.22752
1.22643
1.22525
1.22401
1.22284
1.22172
1.22062
1.2195
1.21839
1.21732
1.21629
1.21528
1.21429
1.21334
1.21242
1.2115
1.21055
1.20967
1.20887
1.20816
1.20742
1.20674
1.20607
1.20536
1.20466
1.20401
1.20338
1.20267
1.20201
1.20149
1.20092
1.20034
1.19976
1.19921
1.19872
1.19823
1.1977
1.19717
1.19667
1.19621
1.19581
1.19534
1.19487
1.19445
1.19397
1.19363
1.19327
1.1929
1.19248
1.19213
1.19168
1.19124
1.19088
1.19053
1.19011
1.18968
1.18934
1.18899
1.18865
1.1883
1.18797
1.18767
1.18736
1.18706
1.1867
1.18632
1.18597
1.18565
1.18536
1.18509
1.18477
1.18443
1.18411
1.18383
1.26193
1.26193
1.26194
1.26195
1.26196
1.26199
1.26201
1.26204
1.26209
1.2621
1.26214
1.26222
1.26217
1.26184
1.26152
1.2612
1.2608
1.26038
1.25991
1.2594
1.25885
1.25822
1.25742
1.25663
1.25576
1.25488
1.25399
1.25311
1.25224
1.25137
1.25044
1.24947
1.24849
1.24755
1.24665
1.24571
1.2448
1.24395
1.24309
1.2422
1.24131
1.2404
1.2395
1.23865
1.23776
1.2368
1.23586
1.23488
1.23388
1.23286
1.23186
1.23078
1.22968
1.22863
1.22757
1.22651
1.22552
1.2245
1.22344
1.22232
1.22126
1.22023
1.21919
1.21818
1.21716
1.21614
1.21516
1.21421
1.21327
1.21237
1.21148
1.21059
1.2097
1.20887
1.2081
1.20742
1.20668
1.20601
1.20537
1.20468
1.204
1.20337
1.20276
1.20207
1.20144
1.20092
1.20038
1.1998
1.19924
1.1987
1.19822
1.19773
1.19723
1.19672
1.19621
1.19577
1.19536
1.1949
1.19445
1.19403
1.19358
1.19324
1.19288
1.19251
1.19211
1.19177
1.19132
1.1909
1.19054
1.19019
1.18978
1.18938
1.18904
1.18869
1.18835
1.18801
1.1877
1.18741
1.1871
1.1868
1.18645
1.18609
1.18574
1.18544
1.18515
1.18488
1.18457
1.18424
1.18393
1.18365
1.26193
1.26193
1.26193
1.26192
1.26191
1.26188
1.26184
1.26176
1.26163
1.26147
1.26126
1.261
1.26064
1.26018
1.2596
1.25888
1.25811
1.2573
1.25645
1.25558
1.25469
1.25375
1.25278
1.25181
1.25085
1.24985
1.2489
1.24799
1.24714
1.24622
1.2453
1.24439
1.24349
1.24266
1.24183
1.241
1.24023
1.23946
1.23868
1.23786
1.23708
1.23633
1.23554
1.23478
1.23402
1.23319
1.2324
1.23159
1.23072
1.22982
1.22896
1.22801
1.22706
1.22614
1.2252
1.22427
1.22338
1.22247
1.22154
1.22055
1.21957
1.21862
1.21766
1.21674
1.2158
1.21488
1.21397
1.21306
1.21219
1.21133
1.2105
1.20966
1.20881
1.20803
1.20729
1.20663
1.20593
1.20527
1.20463
1.20397
1.20334
1.20272
1.20213
1.20146
1.20084
1.20034
1.19981
1.19924
1.19871
1.19819
1.19773
1.19724
1.19675
1.19628
1.19577
1.19532
1.19491
1.19447
1.19403
1.19362
1.19318
1.19285
1.19249
1.19213
1.19175
1.1914
1.19098
1.19057
1.19021
1.18986
1.18947
1.18908
1.18874
1.18841
1.18807
1.18774
1.18744
1.18715
1.18685
1.18655
1.18621
1.18587
1.18553
1.18523
1.18495
1.18468
1.18437
1.18406
1.18375
1.18349
1.26192
1.2619
1.26185
1.26174
1.26158
1.26135
1.26103
1.26063
1.26008
1.25943
1.2587
1.25786
1.25694
1.25595
1.25489
1.2538
1.25271
1.25162
1.25055
1.24949
1.24846
1.24747
1.24648
1.24552
1.24459
1.24367
1.24279
1.24195
1.24124
1.24042
1.23961
1.23883
1.23807
1.23736
1.23667
1.23602
1.23539
1.23473
1.23406
1.23339
1.23275
1.23212
1.23147
1.23082
1.23019
1.22952
1.22886
1.22818
1.22745
1.2267
1.22595
1.22518
1.22437
1.22356
1.22275
1.22194
1.22117
1.22037
1.21955
1.21869
1.2178
1.21693
1.21606
1.21523
1.21439
1.21352
1.21268
1.21184
1.21103
1.21024
1.20947
1.20868
1.20788
1.20714
1.20644
1.2058
1.20514
1.2045
1.20387
1.20325
1.20265
1.20207
1.20148
1.20083
1.20024
1.19975
1.19924
1.19869
1.19817
1.19768
1.19723
1.19675
1.19628
1.19581
1.19531
1.19487
1.19447
1.19404
1.19361
1.19321
1.1928
1.19247
1.1921
1.19176
1.19139
1.19104
1.19064
1.19024
1.18989
1.18954
1.18917
1.18879
1.18845
1.18813
1.1878
1.18748
1.18718
1.1869
1.1866
1.18631
1.18598
1.18565
1.18532
1.18503
1.18476
1.18448
1.18419
1.18388
1.18358
1.18332
1.26179
1.2615
1.26103
1.26035
1.2595
1.25847
1.25726
1.25593
1.25451
1.25308
1.25164
1.25027
1.24893
1.24767
1.24647
1.24533
1.24426
1.24324
1.2423
1.24139
1.24048
1.23964
1.23884
1.23807
1.23735
1.23665
1.23595
1.23531
1.23473
1.23414
1.23357
1.23297
1.2324
1.23187
1.23133
1.23084
1.23039
1.22989
1.22935
1.22882
1.22833
1.22784
1.22733
1.22684
1.22633
1.22581
1.22527
1.22471
1.22412
1.22352
1.22291
1.22227
1.2216
1.22092
1.22025
1.21956
1.2189
1.21822
1.2175
1.21674
1.21596
1.21518
1.2144
1.21367
1.2129
1.21212
1.21136
1.21059
1.20983
1.20911
1.2084
1.20766
1.20692
1.20621
1.20555
1.20495
1.20433
1.20371
1.20309
1.2025
1.20193
1.20137
1.20081
1.2002
1.19963
1.19915
1.19865
1.19812
1.19763
1.19715
1.19671
1.19625
1.1958
1.19534
1.19485
1.19443
1.19402
1.19361
1.19319
1.19281
1.19241
1.19208
1.19172
1.19139
1.19103
1.19069
1.1903
1.18991
1.18956
1.18922
1.18887
1.1885
1.18817
1.18785
1.18753
1.18722
1.18693
1.18665
1.18636
1.18607
1.18575
1.18543
1.18511
1.18483
1.18456
1.18429
1.184
1.1837
1.18341
1.18315
1.25925
1.25633
1.25329
1.25041
1.24778
1.24543
1.24336
1.24158
1.2401
1.23887
1.2378
1.23687
1.23608
1.23537
1.23469
1.23401
1.23337
1.23282
1.23232
1.2318
1.23131
1.23085
1.23038
1.22996
1.22952
1.22909
1.22868
1.2283
1.22796
1.22761
1.22726
1.22692
1.22657
1.22622
1.22588
1.22559
1.22532
1.22496
1.2246
1.22423
1.22389
1.22355
1.2232
1.22284
1.22246
1.22206
1.22166
1.22125
1.22078
1.22032
1.21984
1.21934
1.2188
1.21827
1.21771
1.21714
1.21658
1.21599
1.21539
1.21475
1.21406
1.21338
1.2127
1.21205
1.21138
1.21067
1.20999
1.2093
1.2086
1.20794
1.20728
1.20661
1.20592
1.20526
1.20464
1.20407
1.20349
1.20289
1.20231
1.20175
1.20119
1.20066
1.20012
1.19953
1.199
1.19855
1.19806
1.19755
1.19707
1.19661
1.19618
1.19575
1.19531
1.19486
1.19439
1.19398
1.19357
1.19318
1.19278
1.1924
1.19202
1.19169
1.19135
1.19102
1.19067
1.19034
1.18996
1.18958
1.18924
1.18891
1.18857
1.18821
1.18788
1.18758
1.18726
1.18696
1.18668
1.18641
1.18612
1.18584
1.18553
1.18522
1.18491
1.18463
1.18436
1.1841
1.18382
1.18353
1.18324
1.18299
1.18251
1.19192
1.1988
1.2045
1.20892
1.21221
1.21454
1.21613
1.21729
1.21821
1.21885
1.2194
1.21983
1.22019
1.22052
1.2207
1.22083
1.22094
1.22104
1.22116
1.2212
1.2212
1.22117
1.22112
1.22107
1.22099
1.22092
1.22085
1.22078
1.2207
1.22061
1.22053
1.22044
1.22033
1.22018
1.22009
1.21998
1.21982
1.21962
1.21944
1.21928
1.21908
1.21889
1.21868
1.21846
1.21819
1.21792
1.21763
1.2173
1.21697
1.21663
1.21626
1.21587
1.21547
1.21505
1.21459
1.21412
1.21365
1.21315
1.21262
1.21204
1.21145
1.21088
1.21031
1.20972
1.20912
1.20851
1.20789
1.20727
1.20667
1.20607
1.20547
1.20484
1.20422
1.20365
1.20311
1.20256
1.202
1.20146
1.20093
1.2004
1.1999
1.19938
1.19883
1.19833
1.1979
1.19742
1.19695
1.19648
1.19604
1.19562
1.1952
1.19479
1.19435
1.19391
1.19351
1.19311
1.19272
1.19234
1.19198
1.19162
1.19129
1.19096
1.19063
1.1903
1.18997
1.18961
1.18924
1.1889
1.18858
1.18826
1.18791
1.18759
1.18729
1.18698
1.18669
1.18642
1.18615
1.18587
1.18559
1.18529
1.185
1.18469
1.18442
1.18416
1.1839
1.18363
1.18334
1.18307
1.18282
1.16746
1.16915
1.17219
1.17565
1.17935
1.18305
1.18646
1.18971
1.1928
1.19556
1.19799
1.20011
1.20193
1.20346
1.20485
1.20601
1.207
1.20788
1.20871
1.20951
1.21013
1.21067
1.21114
1.21155
1.2119
1.21223
1.21251
1.21279
1.21303
1.21326
1.21347
1.21366
1.21381
1.21393
1.21405
1.21415
1.21423
1.21427
1.21428
1.21429
1.2143
1.21426
1.21424
1.21419
1.2141
1.21401
1.21387
1.21372
1.21354
1.21335
1.21315
1.21291
1.21267
1.21241
1.21211
1.21178
1.21144
1.21108
1.21068
1.21027
1.20979
1.20932
1.20884
1.20837
1.20789
1.20739
1.20686
1.20633
1.20578
1.20524
1.20471
1.20417
1.20361
1.20305
1.20253
1.20203
1.20152
1.20101
1.20051
1.20002
1.19952
1.19904
1.19856
1.19806
1.19758
1.19717
1.19672
1.19629
1.19583
1.19541
1.19499
1.1946
1.19422
1.19379
1.19338
1.19298
1.1926
1.19222
1.19186
1.19151
1.19117
1.19085
1.19054
1.19021
1.18989
1.18957
1.18922
1.18887
1.18854
1.18823
1.18791
1.18758
1.18727
1.18698
1.18668
1.18639
1.18613
1.18587
1.18559
1.18533
1.18504
1.18475
1.18446
1.18419
1.18394
1.18368
1.18343
1.18315
1.18287
1.18263
1.16537
1.16581
1.16665
1.16664
1.16728
1.16854
1.17031
1.17247
1.17491
1.17752
1.18012
1.18258
1.18492
1.1871
1.18912
1.19102
1.19278
1.19441
1.19589
1.19728
1.19849
1.19959
1.20059
1.20146
1.20225
1.20298
1.20364
1.20427
1.20485
1.20539
1.20589
1.20635
1.20675
1.20713
1.20749
1.20781
1.2081
1.20836
1.20858
1.20878
1.20897
1.20911
1.20925
1.20936
1.20946
1.20952
1.20952
1.20951
1.20949
1.20946
1.20939
1.20929
1.20919
1.20907
1.20891
1.20871
1.20849
1.20825
1.20797
1.20766
1.20732
1.20695
1.20659
1.20622
1.20585
1.20545
1.20501
1.20456
1.2041
1.20365
1.20319
1.20272
1.20223
1.20174
1.20127
1.20081
1.20036
1.1999
1.19943
1.19898
1.19853
1.19808
1.19764
1.19719
1.19675
1.19635
1.19595
1.19554
1.19511
1.1947
1.19431
1.19393
1.19356
1.19317
1.19278
1.1924
1.19203
1.19167
1.19133
1.191
1.19067
1.19036
1.19006
1.18975
1.18944
1.18912
1.18879
1.18846
1.18814
1.18783
1.18754
1.18722
1.18692
1.18663
1.18634
1.18607
1.18581
1.18556
1.18529
1.18503
1.18476
1.18449
1.1842
1.18394
1.1837
1.18345
1.1832
1.18293
1.18266
1.18243
1.1651
1.16527
1.16528
1.16515
1.16506
1.16509
1.16526
1.16563
1.16629
1.16732
1.1687
1.17037
1.17224
1.17422
1.17623
1.17823
1.18019
1.18206
1.18382
1.18549
1.18708
1.18855
1.1899
1.19117
1.19236
1.19348
1.19452
1.19548
1.19638
1.19722
1.19801
1.19873
1.19941
1.20003
1.20063
1.20118
1.20167
1.20214
1.20256
1.20295
1.20333
1.20366
1.20399
1.20426
1.20453
1.20473
1.20489
1.20503
1.20516
1.20528
1.20537
1.20541
1.20544
1.20545
1.20544
1.20538
1.20529
1.20517
1.20502
1.20482
1.2046
1.20435
1.2041
1.20386
1.20359
1.2033
1.20296
1.2026
1.20223
1.20185
1.20149
1.2011
1.20068
1.20026
1.19985
1.19944
1.19906
1.19864
1.19822
1.19781
1.19741
1.19701
1.19661
1.19621
1.19581
1.19543
1.19507
1.19469
1.1943
1.19391
1.19354
1.19319
1.19284
1.19248
1.19212
1.19176
1.1914
1.19106
1.19074
1.19043
1.19012
1.18982
1.18954
1.18924
1.18895
1.18863
1.18833
1.188
1.1877
1.1874
1.18712
1.18682
1.18653
1.18625
1.18598
1.18571
1.18546
1.18522
1.18496
1.18471
1.18445
1.18419
1.18392
1.18366
1.18343
1.18319
1.18295
1.18269
1.18243
1.1822
1.1651
1.16481
1.16468
1.16463
1.1646
1.16458
1.16456
1.16455
1.16457
1.16464
1.16481
1.16515
1.16574
1.16659
1.16771
1.16906
1.17056
1.17216
1.17381
1.17547
1.17713
1.1787
1.18016
1.18159
1.18297
1.18431
1.18557
1.18676
1.18789
1.189
1.19003
1.19099
1.19191
1.19276
1.19356
1.19434
1.19504
1.19571
1.19634
1.19691
1.19746
1.19798
1.19846
1.1989
1.19932
1.19969
1.20001
1.20031
1.20059
1.20085
1.20108
1.20127
1.20144
1.20159
1.20172
1.2018
1.20183
1.20184
1.20181
1.20175
1.20165
1.20152
1.2014
1.20126
1.2011
1.20092
1.20068
1.20042
1.20015
1.19986
1.19958
1.19929
1.19895
1.1986
1.19825
1.19791
1.19759
1.19723
1.19687
1.19652
1.19616
1.19581
1.19545
1.19511
1.19475
1.19441
1.19409
1.19375
1.19339
1.19303
1.1927
1.19237
1.19203
1.1917
1.19138
1.19104
1.19071
1.19039
1.19008
1.18979
1.1895
1.18923
1.18896
1.18867
1.1884
1.18809
1.18781
1.1875
1.18721
1.18693
1.18666
1.18637
1.1861
1.18583
1.18557
1.18532
1.18507
1.18484
1.18459
1.18435
1.18411
1.18386
1.1836
1.18336
1.18313
1.18291
1.18267
1.18242
1.18217
1.18195
1.16441
1.16441
1.16441
1.16441
1.16441
1.16442
1.16441
1.16441
1.16441
1.16441
1.16442
1.16443
1.16446
1.16454
1.1647
1.16499
1.16547
1.16617
1.16708
1.16818
1.16941
1.17071
1.17206
1.17342
1.17479
1.17613
1.17745
1.17874
1.17998
1.18119
1.18235
1.18344
1.1845
1.18551
1.18648
1.18742
1.18832
1.18917
1.18996
1.19071
1.19144
1.19212
1.19276
1.19337
1.19393
1.19446
1.19494
1.1954
1.19582
1.19621
1.19658
1.19692
1.19723
1.19751
1.19777
1.19797
1.19814
1.19827
1.19838
1.19844
1.19847
1.19848
1.19847
1.19844
1.1984
1.19831
1.1982
1.19803
1.19786
1.19768
1.19748
1.19728
1.19702
1.19676
1.19649
1.19622
1.19595
1.19567
1.19537
1.19507
1.19477
1.19447
1.19418
1.19388
1.19358
1.19328
1.19299
1.19269
1.19237
1.19205
1.19174
1.19145
1.19114
1.19084
1.19055
1.19024
1.18993
1.18964
1.18936
1.18908
1.18881
1.18856
1.18831
1.18804
1.18778
1.1875
1.18723
1.18694
1.18666
1.1864
1.18614
1.18588
1.18562
1.18537
1.18512
1.18488
1.18465
1.18442
1.18419
1.18396
1.18373
1.1835
1.18325
1.18302
1.1828
1.18259
1.18236
1.18213
1.18189
1.18167
1.1644
1.1644
1.1644
1.1644
1.1644
1.1644
1.1644
1.1644
1.1644
1.1644
1.1644
1.1644
1.1644
1.1644
1.16441
1.16442
1.16445
1.16451
1.16464
1.16488
1.16528
1.16584
1.16658
1.16747
1.16848
1.16958
1.17072
1.17189
1.17307
1.17425
1.17541
1.17654
1.17765
1.17873
1.17978
1.1808
1.18179
1.18273
1.18364
1.18452
1.18538
1.1862
1.18698
1.18774
1.18845
1.18911
1.18974
1.19034
1.1909
1.19142
1.19192
1.19239
1.19283
1.19324
1.19362
1.19395
1.19425
1.1945
1.19473
1.19493
1.19509
1.19522
1.19533
1.19542
1.19547
1.1955
1.19549
1.19544
1.19537
1.19529
1.19518
1.19506
1.1949
1.19472
1.19454
1.19435
1.19415
1.19393
1.19371
1.19347
1.19323
1.193
1.19276
1.19251
1.19226
1.19202
1.19177
1.19151
1.19124
1.19096
1.19068
1.19042
1.19015
1.18988
1.18961
1.18935
1.18908
1.18881
1.18855
1.18829
1.18805
1.18782
1.18759
1.18735
1.1871
1.18685
1.18659
1.18633
1.18607
1.18582
1.18558
1.18533
1.18509
1.18486
1.18463
1.1844
1.18417
1.18396
1.18375
1.18353
1.18331
1.18309
1.18286
1.18264
1.18244
1.18224
1.18202
1.1818
1.18157
1.18136
1.1644
1.1644
1.1644
1.1644
1.1644
1.1644
1.1644
1.1644
1.1644
1.1644
1.1644
1.1644
1.1644
1.1644
1.1644
1.1644
1.1644
1.1644
1.16441
1.16441
1.16444
1.16449
1.16459
1.16479
1.1651
1.16556
1.16617
1.16691
1.16776
1.16868
1.16966
1.17066
1.17169
1.17272
1.17375
1.17476
1.17577
1.17675
1.17771
1.17864
1.17956
1.18045
1.18131
1.18214
1.18295
1.18373
1.18449
1.18521
1.18589
1.18653
1.18714
1.18773
1.18829
1.18882
1.18932
1.18977
1.19018
1.19056
1.19091
1.19124
1.19152
1.19176
1.192
1.19219
1.19235
1.19248
1.19257
1.19263
1.19267
1.19268
1.19269
1.19265
1.19259
1.19251
1.19241
1.19229
1.19217
1.19203
1.19187
1.19171
1.19154
1.19136
1.19118
1.191
1.19081
1.19061
1.19041
1.1902
1.18997
1.18974
1.18951
1.18928
1.18905
1.18881
1.18858
1.18836
1.18812
1.18788
1.18765
1.18742
1.18721
1.18699
1.18679
1.18657
1.18635
1.18612
1.18588
1.18564
1.1854
1.18517
1.18495
1.18472
1.18451
1.18429
1.18407
1.18386
1.18365
1.18345
1.18325
1.18305
1.18284
1.18264
1.18243
1.18223
1.18203
1.18184
1.18164
1.18143
1.18122
1.18101
1.1644
1.1644
1.1644
1.1644
1.1644
1.1644
1.1644
1.1644
1.1644
1.1644
1.1644
1.1644
1.1644
1.1644
1.1644
1.1644
1.1644
1.1644
1.1644
1.1644
1.1644
1.1644
1.1644
1.16441
1.16443
1.16447
1.16455
1.1647
1.16495
1.16532
1.16581
1.16643
1.16714
1.16793
1.16877
1.16965
1.17055
1.17146
1.17238
1.17329
1.1742
1.1751
1.17598
1.17684
1.17769
1.17852
1.17933
1.18012
1.18088
1.18161
1.18232
1.18301
1.18368
1.18431
1.18491
1.18547
1.18599
1.18649
1.18695
1.18738
1.18778
1.18814
1.18848
1.18878
1.18904
1.18926
1.18946
1.18963
1.18978
1.1899
1.18999
1.19005
1.19009
1.19011
1.1901
1.19006
1.19002
1.18995
1.18987
1.18978
1.18969
1.18957
1.18946
1.18933
1.1892
1.18906
1.18891
1.18875
1.18858
1.18839
1.18821
1.18802
1.18783
1.18763
1.18744
1.18726
1.18706
1.18685
1.18666
1.18646
1.18628
1.18609
1.1859
1.18571
1.18551
1.18531
1.1851
1.18488
1.18467
1.18445
1.18425
1.18405
1.18385
1.18365
1.18346
1.18327
1.18308
1.18289
1.1827
1.18252
1.18233
1.18214
1.18195
1.18176
1.18158
1.1814
1.18121
1.18102
1.18082
1.18063
1.1644
1.1644
1.1644
1.1644
1.1644
1.1644
1.1644
1.1644
1.1644
1.1644
1.1644
1.1644
1.1644
1.1644
1.1644
1.1644
1.1644
1.1644
1.1644
1.1644
1.1644
1.1644
1.1644
1.1644
1.1644
1.1644
1.1644
1.16441
1.16442
1.16445
1.16451
1.16462
1.16481
1.16511
1.16551
1.16601
1.16661
1.16728
1.16801
1.16878
1.16958
1.17039
1.17122
1.17205
1.17287
1.17369
1.17451
1.17531
1.17611
1.17687
1.17762
1.17836
1.17909
1.17978
1.18046
1.18112
1.18174
1.18233
1.18289
1.18341
1.18391
1.18439
1.18482
1.18522
1.18558
1.1859
1.1862
1.18647
1.18672
1.18694
1.18712
1.18728
1.18741
1.18752
1.1876
1.18765
1.18769
1.18771
1.18771
1.18769
1.18767
1.18763
1.18757
1.18751
1.18744
1.18737
1.18727
1.18716
1.18704
1.18691
1.18678
1.18663
1.18648
1.18633
1.18618
1.18604
1.18588
1.18572
1.18556
1.18539
1.18524
1.18508
1.18492
1.18475
1.18458
1.1844
1.18423
1.18404
1.18385
1.18366
1.18348
1.18331
1.18313
1.18295
1.18278
1.18261
1.18244
1.18226
1.1821
1.18192
1.18175
1.18159
1.18142
1.18125
1.18107
1.18091
1.18074
1.18056
1.18038
1.1802
1.1644
1.1644
1.1644
1.1644
1.1644
1.1644
1.1644
1.1644
1.1644
1.1644
1.1644
1.1644
1.1644
1.1644
1.1644
1.1644
1.1644
1.1644
1.1644
1.1644
1.1644
1.1644
1.1644
1.1644
1.1644
1.1644
1.1644
1.1644
1.1644
1.1644
1.1644
1.16441
1.16441
1.16443
1.16447
1.16456
1.1647
1.16492
1.16524
1.16565
1.16615
1.16673
1.16736
1.16804
1.16875
1.16948
1.17022
1.17098
1.17174
1.17249
1.17324
1.17398
1.17472
1.17544
1.17614
1.17684
1.17751
1.17816
1.1788
1.17941
1.17999
1.18055
1.18107
1.18156
1.18201
1.18243
1.18282
1.18318
1.18352
1.18383
1.1841
1.18435
1.18458
1.18477
1.18493
1.18508
1.1852
1.18529
1.18537
1.18543
1.18548
1.18551
1.18553
1.18553
1.18552
1.18551
1.18548
1.18543
1.18537
1.18529
1.1852
1.18511
1.18501
1.18491
1.1848
1.1847
1.18459
1.18446
1.18434
1.18422
1.1841
1.18397
1.18384
1.1837
1.18356
1.18341
1.18327
1.18311
1.18295
1.18279
1.18264
1.18248
1.18233
1.18217
1.18203
1.18188
1.18172
1.18157
1.18142
1.18127
1.18112
1.18097
1.18082
1.18067
1.18051
1.18037
1.18021
1.18005
1.17989
1.17972
1.1644
1.1644
1.1644
1.1644
1.1644
1.1644
1.1644
1.1644
1.1644
1.1644
1.1644
1.1644
1.1644
1.1644
1.1644
1.1644
1.1644
1.1644
1.1644
1.1644
1.1644
1.1644
1.1644
1.1644
1.1644
1.1644
1.1644
1.1644
1.1644
1.1644
1.1644
1.1644
1.1644
1.1644
1.1644
1.1644
1.16441
1.16442
1.16445
1.1645
1.1646
1.16477
1.16501
1.16535
1.16576
1.16625
1.1668
1.16739
1.16803
1.16869
1.16936
1.17004
1.17074
1.17143
1.17213
1.17281
1.17349
1.17416
1.17482
1.17546
1.17609
1.1767
1.17729
1.17785
1.17838
1.17888
1.17935
1.1798
1.18022
1.18061
1.18097
1.18131
1.18161
1.18189
1.18214
1.18236
1.18255
1.18273
1.18288
1.18302
1.18315
1.18325
1.18333
1.1834
1.18345
1.1835
1.18354
1.18355
1.18355
1.18353
1.1835
1.18345
1.1834
1.18335
1.1833
1.18324
1.18317
1.18309
1.18301
1.18293
1.18284
1.18276
1.18266
1.18255
1.18244
1.18232
1.18221
1.18208
1.18195
1.18182
1.1817
1.18158
1.18145
1.18131
1.18119
1.18107
1.18094
1.18081
1.18068
1.18055
1.18041
1.18029
1.18016
1.18002
1.17989
1.17976
1.17962
1.17948
1.17933
1.17918
1.1644
1.1644
1.1644
1.1644
1.1644
1.1644
1.1644
1.1644
1.1644
1.1644
1.1644
1.1644
1.1644
1.1644
1.1644
1.1644
1.1644
1.1644
1.1644
1.1644
1.1644
1.1644
1.1644
1.1644
1.1644
1.1644
1.1644
1.1644
1.1644
1.1644
1.1644
1.1644
1.1644
1.1644
1.1644
1.1644
1.1644
1.1644
1.1644
1.1644
1.1644
1.16441
1.16443
1.16446
1.16453
1.16465
1.16483
1.16509
1.16543
1.16584
1.16631
1.16683
1.16739
1.16798
1.16859
1.16922
1.16985
1.17049
1.17112
1.17176
1.17238
1.173
1.17361
1.1742
1.17477
1.17532
1.17586
1.17637
1.17686
1.17732
1.17775
1.17816
1.17854
1.17889
1.17922
1.17952
1.17979
1.18004
1.18027
1.18048
1.18067
1.18084
1.18099
1.18113
1.18125
1.18136
1.18146
1.18153
1.18159
1.18163
1.18165
1.18166
1.18167
1.18167
1.18167
1.18165
1.18163
1.1816
1.18156
1.18152
1.18147
1.18142
1.18136
1.18129
1.18121
1.18113
1.18105
1.18096
1.18086
1.18076
1.18067
1.18058
1.18047
1.18037
1.18027
1.18017
1.18007
1.17996
1.17985
1.17975
1.17964
1.17953
1.17942
1.17931
1.1792
1.17908
1.17896
1.17884
1.17872
1.17858
1.1644
1.1644
1.1644
1.1644
1.1644
1.1644
1.1644
1.1644
1.1644
1.1644
1.1644
1.1644
1.1644
1.1644
1.1644
1.1644
1.1644
1.1644
1.1644
1.1644
1.1644
1.1644
1.1644
1.1644
1.1644
1.1644
1.1644
1.1644
1.1644
1.1644
1.1644
1.1644
1.1644
1.1644
1.1644
1.1644
1.1644
1.1644
1.1644
1.1644
1.1644
1.1644
1.1644
1.1644
1.1644
1.16441
1.16442
1.16444
1.16448
1.16456
1.16469
1.16488
1.16515
1.16548
1.16588
1.16634
1.16683
1.16736
1.1679
1.16847
1.16904
1.16962
1.1702
1.17078
1.17135
1.17191
1.17246
1.17299
1.17351
1.17402
1.17451
1.17497
1.17542
1.17584
1.17623
1.1766
1.17694
1.17726
1.17755
1.17783
1.17808
1.17832
1.17854
1.17874
1.17892
1.1791
1.17925
1.17938
1.17949
1.17959
1.17968
1.17975
1.17981
1.17987
1.17991
1.17994
1.17997
1.17998
1.17999
1.17999
1.17998
1.17997
1.17995
1.17992
1.17988
1.17983
1.17978
1.17973
1.17967
1.17961
1.17955
1.17948
1.17941
1.17934
1.17927
1.17919
1.17911
1.17903
1.17895
1.17887
1.17878
1.1787
1.17861
1.17852
1.17843
1.17834
1.17824
1.17814
1.17803
1.17791
1.1644
1.1644
1.1644
1.1644
1.1644
1.1644
1.1644
1.1644
1.1644
1.1644
1.1644
1.1644
1.1644
1.1644
1.1644
1.1644
1.1644
1.1644
1.1644
1.1644
1.1644
1.1644
1.1644
1.1644
1.1644
1.1644
1.1644
1.1644
1.1644
1.1644
1.1644
1.1644
1.1644
1.1644
1.1644
1.1644
1.1644
1.1644
1.1644
1.1644
1.1644
1.1644
1.1644
1.1644
1.1644
1.1644
1.1644
1.1644
1.1644
1.1644
1.16441
1.16442
1.16444
1.16449
1.16458
1.16472
1.16492
1.16518
1.16551
1.16589
1.16632
1.16678
1.16727
1.16777
1.16829
1.16881
1.16933
1.16984
1.17036
1.17086
1.17136
1.17185
1.17232
1.17277
1.17321
1.17363
1.17403
1.17442
1.17477
1.1751
1.17542
1.17571
1.17599
1.17625
1.17649
1.17672
1.17693
1.17712
1.17729
1.17745
1.17759
1.17771
1.17783
1.17794
1.17803
1.17811
1.17819
1.17825
1.1783
1.17834
1.17838
1.17841
1.17843
1.17843
1.17843
1.17843
1.17841
1.17839
1.17837
1.17834
1.17832
1.17828
1.17824
1.1782
1.17816
1.17812
1.17806
1.17801
1.17796
1.1779
1.17784
1.17778
1.17772
1.17765
1.17758
1.17751
1.17743
1.17736
1.17726
1.17717
1.1644
1.1644
1.1644
1.1644
1.1644
1.1644
1.1644
1.1644
1.1644
1.1644
1.1644
1.1644
1.1644
1.1644
1.1644
1.1644
1.1644
1.1644
1.1644
1.1644
1.1644
1.1644
1.1644
1.1644
1.1644
1.1644
1.1644
1.1644
1.1644
1.1644
1.1644
1.1644
1.1644
1.1644
1.1644
1.1644
1.1644
1.1644
1.1644
1.1644
1.1644
1.1644
1.1644
1.1644
1.1644
1.1644
1.1644
1.1644
1.1644
1.1644
1.1644
1.1644
1.1644
1.1644
1.1644
1.16441
1.16442
1.16445
1.1645
1.16459
1.16473
1.16493
1.16518
1.16549
1.16585
1.16624
1.16666
1.1671
1.16756
1.16802
1.16848
1.16895
1.16941
1.16986
1.17031
1.17074
1.17116
1.17157
1.17197
1.17235
1.17271
1.17305
1.17338
1.17369
1.17399
1.17426
1.17453
1.17477
1.175
1.17521
1.1754
1.17558
1.17574
1.1759
1.17604
1.17617
1.17629
1.1764
1.1765
1.17659
1.17666
1.17673
1.17679
1.17684
1.17688
1.17691
1.17693
1.17695
1.17696
1.17697
1.17698
1.17698
1.17697
1.17697
1.17696
1.17694
1.17692
1.1769
1.17687
1.17684
1.17681
1.17677
1.17674
1.1767
1.17665
1.1766
1.17655
1.17649
1.17642
1.17635
1.1644
1.1644
1.1644
1.1644
1.1644
1.1644
1.1644
1.1644
1.1644
1.1644
1.1644
1.1644
1.1644
1.1644
1.1644
1.1644
1.1644
1.1644
1.1644
1.1644
1.1644
1.1644
1.1644
1.1644
1.1644
1.1644
1.1644
1.1644
1.1644
1.1644
1.1644
1.1644
1.1644
1.1644
1.1644
1.1644
1.1644
1.1644
1.1644
1.1644
1.1644
1.1644
1.1644
1.1644
1.1644
1.1644
1.1644
1.1644
1.1644
1.1644
1.1644
1.1644
1.1644
1.1644
1.1644
1.1644
1.1644
1.1644
1.1644
1.1644
1.16441
1.16442
1.16445
1.1645
1.16459
1.16472
1.1649
1.16513
1.16542
1.16574
1.16609
1.16647
1.16687
1.16727
1.16768
1.16808
1.16849
1.16889
1.16929
1.16967
1.17005
1.17042
1.17078
1.17112
1.17145
1.17177
1.17208
1.17237
1.17264
1.17289
1.17313
1.17336