/*--------------------------------*- C++ -*----------------------------------*\
| =========                 |                                                 |
| \\      /  F ield         | OpenFOAM: The Open Source CFD Toolbox           |
|  \\    /   O peration     | Version:  1.7.0                                 |
|   \\  /    A nd           | Web:      www.OpenFOAM.com                      |
|    \\/     M anipulation  |                                                 |
\*---------------------------------------------------------------------------*/
FoamFile
{
    version     2.0;
    format      ascii;
    class       volScalarField;
    location    "0.33";
    object      Sevap;
}
// * * * * * * * * * * * * * * * * * * * * * * * * * * * * * * * * * * * * * //

dimensions      [1 -3 -1 0 0 0 0];

internalField   nonuniform List<scalar> 
5460
(
0
3.06721
1.51691
0.916852
0.409956
1.38246
2.64506
2.64938
1.22114
0.970886
0.550162
0.293398
0.967567
1.42588
2.91128
1.0542
0.175982
0
0.791619
0.143314
0
0.160983
0
0.679806
0.636633
0.361017
0
0.904624
3.9783
0
0.184607
1.02267
2.06967
2.80531
0.657368
7.74381
0
5.18994
3.96158
1.9774
0.718286
0
3.1626
13.5373
4.29962
1.04407
3.7162
5.13775
1.20739
4.16763
1.33759
4.73077
6.01088
5.7728
8.33005
10.7097
8.75183
9.48783
3.16746
12.2221
9.6569
3.29595
15.9621
10.5965
13.6407
8.24697
8.18327
13.5057
22.3856
11.9693
13.5138
9.2864
14.297
13.6559
15.6509
11.9938
23.7111
15.8566
17.4583
22.1494
19.3503
21.5843
15.1793
22.4131
22.3061
17.7544
20.0745
18.4735
18.8936
21.329
20.8856
20.1157
19.6044
18.3808
16.9331
20.1876
17.2254
21.5036
17.4974
18.7093
19.0393
17.0053
18.2318
16.0662
16.0875
18.9372
15.6306
13.26
17.3845
17.1857
15.2404
12.8844
14.4122
15.1867
14.7955
13.9549
14.038
12.1222
13.1807
12.3238
12.488
10.0677
10.0712
9.33595
9.70475
8.86694
9.77015
8.36141
7.76932
7.16847
0
0.589534
2.94963
2.91339
2.71396
1.06013
0.337167
1.20206
1.38894
1.23406
2.01945
1.27597
1.18711
1.70082
1.24863
8.74209
1.90722
0.789786
0.66889
0.216213
1.20755
1.89449
0.821052
0.0752355
0.439118
0.340855
1.10304
0.540298
0.132064
0.0423972
0.603203
2.82647
0.233919
0.1255
0.244443
0.245994
0.532669
0.71537
0.44446
0.493513
1.3898
1.98905
0
1.19031
0.626901
0.434462
1.08842
0.342038
1.03998
2.21032
1.82583
2.69438
0.769953
2.41815
1.61675
1.25974
0.741143
2.18277
2.19063
2.00075
2.17981
2.208
1.57261
0.577651
1.81361
1.21223
0.765822
0.895397
1.05497
0.63649
1.76275
0.509888
1.09681
1.90006
0.518002
1.27348
1.30898
1.04963
0.890281
1.44432
0.635841
1.54655
1.41139
0.589473
0.580796
0.675092
1.02121
0.961214
1.35767
0.84838
0.937108
1.99441
0.809537
1.47034
1.30957
1.83516
0.806424
1.01064
0.951501
1.02308
1.28085
0.885453
0.966821
1.27718
1.27611
1.0207
0.851446
0.897307
0.808116
0.779427
0.623884
0.80315
0.834176
0.653375
0.493156
0.77495
0.52942
0.407582
0.579191
0.548494
0.583495
0.533795
0.529756
0.332642
0.344244
0.535592
0.314234
0.571731
0.279476
0.333841
0
1.09224
1.24227
0.596947
0.328
0.691785
1.54899
1.28707
1.12628
1.21494
0.188127
0.166631
0.215937
0.5269
1.32953
1.5044
0.4383
1.46693
1.51606
0.540508
0.0654098
0.525653
2.18094
0.260343
0.372961
0.166447
0.565868
0.378824
0.428185
1.61872
0.439777
0.274886
0.88476
0.415609
1.31849
0.726531
0.646224
0.659226
0.121587
0.575272
1.09164
0.519288
0.591862
0.928775
1.18197
0.530902
0.804352
0.538588
0.641994
1.16768
0.692706
0.718827
0.277332
0.479132
0.455575
0.301926
0.258133
0.326337
0.990859
0.803442
0.548195
1.14945
0.648216
0.572979
0.53281
0.976885
0.69751
0.902594
0.916361
0.243888
2.09154
1.17887
1.32099
1.03966
0.329764
0.691682
1.30128
0.742239
0.855408
1.23902
1.08774
1.0928
0.96888
0.784991
0.518371
0.321805
0.816432
0.702524
0.628223
0.498451
0.542521
0.517403
0.65403
0.341255
0.261443
0.359777
0.5347
0.719079
0.450632
0.600932
0.362687
0.46969
0.468818
0.644423
0.293988
0.587671
0.366728
0.536346
0.458844
0.742742
0.347718
0.457799
0.438125
0.497756
0.284602
0.313623
0.431275
0.322188
0.362478
0.342323
0.297089
0.269274
0.231832
0.221093
0.277668
0.28073
0.276643
0.139174
0.192543
0.120836
0
0
0.601921
0.538326
0.777406
0.237202
0.608354
0.623752
0.452631
0.431638
0.642553
0.824669
0.172816
0.3167
0.72246
0.683416
0.841733
1.00975
0.449445
0.358181
0.186039
0.11924
1.69442
2.9562
0.89833
0.422108
1.03195
0.0958918
0.148048
1.21027
0.829951
0.278676
1.00531
0.752317
0.500904
0.497448
1.78031
0.501422
0.367174
0.483788
0.7536
1.19879
0.68992
1.30654
0.641086
0.482613
0.821918
0.545692
0.805101
0.760381
0.992867
0.288342
0.657278
0.191501
0.455517
0.323774
0.517048
0.922876
1.33706
0.449062
0.591224
0.902321
1.03042
0.620491
1.39691
0.747697
0.794057
0.923458
0.983609
0.354898
0.830137
0.892054
0.574098
0.263719
0.582385
0.501755
0.330677
0.557705
0.406699
0.559779
0.391241
0.224965
0.180354
0.374406
0.407474
0.771456
0.610574
0.530161
0.577723
0.569905
0.584015
0.433491
0.359669
0.535048
0.316022
0.495327
0.51024
0.221753
0.324172
0.322651
0.509534
0.236053
0.532597
0.483644
0.417826
0.370401
0.409404
0.351577
0.31213
0.324942
0.16569
0.312213
0.351185
0.300689
0.239539
0.310392
0.153478
0.253004
0.190593
0.107084
0.174498
0.214649
0.264149
0.160069
0.129264
0.138177
0.127798
0.190692
0.141694
0.16015
0
0.927986
0.670405
0.395406
0.325498
0.244377
0.289912
0.193477
0.109694
0.636088
0.370492
0.240525
0.328315
0.588116
0.316987
0.874449
1.26607
0.46571
0.219773
0.587289
0.828079
0.22299
0.340639
0.291706
0.345814
0.283666
0.384491
0.447194
0.623196
0.218004
0.162397
1.05967
0.261327
0.366529
0.226054
0.380956
0.587407
0.119134
0.843161
0.353707
1.37559
0.363433
0.24414
0.332389
1.29326
0.564416
0.408021
0.45819
1.18696
0.785805
0.534764
0.391102
0.338108
0.258913
0.217461
0.451858
0.342267
0.386073
1.19333
0.16538
0.784904
0.464051
0.86682
0.447886
0.386978
0.471662
0.439492
0.417262
0.129273
0.537827
0.395786
0.699631
0.494094
0.267465
0.454387
0.469703
0.38337
0.293864
0.490484
0.47585
0.339533
0.376909
0.530275
0.326568
0.260089
0.692266
0.401222
0.499844
0.385031
0.304934
0.323917
0.375404
0.285749
0.340349
0.447897
0.134755
0.25843
0.350298
0.397744
0.239974
0.129843
0.163749
0.307402
0.26175
0.161737
0.297335
0.303914
0.415574
0.212967
0.15411
0.41597
0.111723
0.253655
0.154521
0.102287
0.175327
0.229991
0.117062
0.103587
0.143898
0.194553
0.1352
0.111566
0.15379
0.0664951
0.123368
0.0570293
0.103097
0.102854
0.0850655
0
0.630996
0.0390293
0.180788
0.166438
2.62775
1.69845
0.804719
0.35554
0.223626
0.107051
0.320461
0.373745
0.183334
0.0890385
0.0814386
0.391042
0.651136
0.356891
0.236631
0.468109
0.242569
0.556469
0.473794
0.343461
0.294169
0.278183
0.224361
0.16169
0.165549
0.869373
1.64388
0.148157
0.145033
0.323126
0.567188
0.363374
0.208103
0.656778
0.137854
0.427303
0.0549947
0.159066
0.672989
0.695468
0.273208
0.423136
0.11099
0.155582
0.518572
0.51846
0.226019
0.396525
0.57067
0.387828
0.270315
0.664326
0.950292
0.691655
0.33082
0.313054
0.196694
0.598781
0.21486
0.239863
0.382151
0.280953
0.631362
0.373879
0.429914
0.200747
0.532121
0.213582
0.379624
0.580752
0.242898
0.354558
0.459474
0.559496
0.229853
0.379149
0.34813
0.544073
0.265199
0.169639
0.500897
0.335738
0.321699
0.207961
0.155859
0.178989
0.224316
0.188855
0.272911
0.262646
0.216543
0.244466
0.181744
0.168351
0.281088
0.222425
0.268765
0.260798
0.248615
0.153274
0.26504
0.206789
0.161921
0.135014
0.158374
0.167166
0.140972
0.147446
0.0614996
0.179558
0.0966441
0.0680712
0.1387
0.143167
0.167303
0.145592
0.0352006
0.0708424
0.069809
0.0839699
0.104738
0.0555192
0.0790296
0.0926338
0.0654648
0
0.991416
0.0675013
0
0.117353
0.113694
0.131156
0.412873
0.52255
0.264311
0.0657101
0.210831
0.335464
0.181386
0.0236364
0.150281
0.300512
0.124776
0.493402
0.435835
0.686455
0.597924
0.0503886
0.208499
0.82228
0.312195
0.0259722
0.0137177
0.118872
1.14942
0.16913
0.653371
0.35777
0.118941
0.332104
0.0144332
0.0572142
0.27384
0.345567
0.895802
0.578794
0.504566
0.253704
0.164122
0.245916
0.51355
0.412888
0.30787
0.615104
0.494005
0.546477
0.85978
0.395204
0.654385
0.417844
0.409823
0.376843
0.48294
0.505342
0.292382
0.221099
0.27286
0.496967
0.203652
0.373236
0.39379
0.441402
0.266942
0.23403
0.132169
0.327128
0.383534
0.193334
0.336022
0.145072
0.272013
0.191088
0.389536
0.308758
0.245902
0.289818
0.240592
0.436229
0.331185
0.230594
0.312032
0.133256
0.21001
0.266896
0.277953
0.169502
0.37937
0.287202
0.243899
0.223507
0.176847
0.394577
0.261137
0.216897
0.182673
0.171059
0.147041
0.224973
0.239139
0.149897
0.0691532
0.211119
0.0974147
0.0542094
0.132461
0.171569
0.0761272
0.0921389
0.125771
0.128213
0.107612
0.0607231
0.084937
0.073101
0.0888925
0.0967584
0.0749436
0.0653126
0.110833
0.044011
0.0239923
0.0772685
0.0223743
0.0270647
0.0720805
0
0.256908
0.565211
0.609688
0.224431
0.531369
0.221867
0.255168
0.80253
0.145159
0.126827
1.80198
2.75866
0.178138
0.236021
0.619974
0.119755
0.302067
0.135312
0.274959
0.498602
1.26509
0.138036
0.566314
0.175408
0.0922244
0.228154
0.21051
0.217709
0.470512
0.502913
0.404979
0.14285
0.12944
0.700628
0.279472
0.0553415
0.228535
0.4077
0.317286
0.465876
0.174472
0.125522
0.341284
0.667391
0.241488
0.385191
0.164952
0.18289
0.0200969
0.504266
0.209861
0.169024
0.402277
0.548665
0.259972
0.471141
0.198098
0.355931
0.182111
0.314188
0.48297
0.451315
0.600788
0.581013
0.327967
0.16297
0.513238
0.206661
0.463351
0.170691
0.140468
0.131678
0.193942
0.205497
0.36445
0.17734
0.17041
0.440866
0.287364
0.0423624
0.15241
0.363864
0.187733
0.22897
0.280281
0.466973
0.306791
0.308113
0.210248
0.109949
0.113112
0.153213
0.181582
0.0775207
0.23228
0.272174
0.181772
0.155456
0.206478
0.13959
0.141133
0.196555
0.140935
0.129745
0.260407
0.0970445
0.115565
0.157537
0.13676
0.0867347
0.0696873
0.159157
0.103212
0.0980105
0.0530037
0.114565
0.133419
0.0859303
0.0567768
0.0842604
0.0952776
0.0613293
0.0587686
0.0648355
0.0753873
0.0648001
0.0745077
0.059829
0.043235
0
0.689063
0.4763
0.32296
0.365789
0.296688
0.445852
0.40731
0.118076
0.0854291
0.195964
0.499871
0.31349
0.646494
0.818627
0.352388
0.176425
0.157147
0.136596
0.14143
0.460167
0.202081
0.0934699
0.186856
0.543098
0.0638367
0.244626
0.0351965
0.317827
0.191376
0.131888
0.276052
0.110384
0.507073
0.418344
0.178082
0.422133
0.387687
0.567823
0.13157
0.133151
0.447744
0.256914
0.135129
0.423907
0.103613
0.25995
0.630314
0.452091
0.0754261
0.516873
0.193958
0.111724
0.308439
0.201598
0.123313
0.202295
0.136438
0.392374
0.170806
0.145937
0.259398
0.111234
0.236913
0.199929
0.445433
0.445112
0.257963
0.366044
0.162889
0.190896
0.202594
0.171357
0.249494
0.230938
0.379196
0.163625
0.0907067
0.215545
0.140946
0.262958
0.119569
0.281081
0.181637
0.0871044
0.155608
0.110238
0.112621
0.204336
0.151123
0.237676
0.275172
0.164734
0.343058
0.202832
0.149638
0.117026
0.146764
0.219635
0.179942
0.0873951
0.168727
0.159175
0.131589
0.129978
0.122825
0.164688
0.0934154
0.0840015
0.122749
0.0924856
0.0985736
0.0656147
0.0893262
0.0712339
0.0608541
0.0521647
0.0544511
0.0830324
0.043943
0.0845509
0.0667976
0.0503396
0.0939854
0.0752874
0.0419887
0.0301446
0.0593829
0.0355328
0.0767376
0
0.57033
0.685131
0.391026
0.110169
0.480084
0.0993736
0.627372
0.218477
0.107371
0.252277
0.263117
0.216099
0.312914
0.142489
0.116716
0.140581
0.127228
0.263384
0.075332
0.12459
0.363677
0.356783
0.242577
0.334129
0.156496
0.308579
0.00796077
1.08034
0.473415
0.092676
0.228555
0.0662986
0.0723367
0.134313
0.291129
0.443857
0.120208
0.173802
0.285909
0.154681
0.418617
0.348977
0.0431143
0.293339
0.231555
0.2696
0.287977
0.315882
0.287193
0.0747087
0.347228
0.387359
0.307339
0.153441
0.0571357
0.196032
0.135107
0.236031
0.522091
0.232416
0.220239
0.119835
0.107097
0.405908
0.124778
0.097526
0.0899003
0.110191
0.202964
0.20885
0.1813
0.135828
0.295276
0.189879
0.156071
0.186257
0.266073
0.137066
0.155913
0.251937
0.302705
0.280592
0.163676
0.126883
0.174807
0.284459
0.107232
0.179198
0.229912
0.19466
0.170538
0.134535
0.261191
0.0932822
0.123118
0.144791
0.174122
0.066664
0.112279
0.107097
0.139162
0.102555
0.0870294
0.0794527
0.122451
0.103877
0.133977
0.128995
0.0919545
0.0811848
0.0937364
0.0915003
0.106861
0.0713423
0.0924516
0.0741778
0.0662338
0.074992
0.0789315
0.048266
0.0718118
0.034856
0.0411539
0.0468343
0.07151
0.0562258
0.0526199
0.0299391
0.0444103
0
0.705631
0.55861
0.215738
0.304236
0.496605
0.394957
0.338222
0.233637
0.222684
0.0233898
0.425436
0.16137
0.146653
0.216061
0.328602
0.385382
0.246023
0.459635
0.748199
0.132051
0.161174
0.306269
0.0286368
0.217919
0.371561
0.178415
0.210507
0.304366
0.202599
0.550967
0.220786
0.180593
0.413288
0.207394
0.0662291
0.295368
0.578541
0.261543
0.0601013
0.240384
0.187998
0.103001
0.218703
0.22864
0.315902
0.324234
0.212538
0.208484
0.267264
0.199628
0.27698
0.21932
0.0167871
0.167178
0.0866879
0.189657
0.383018
0.233811
0.08318
0.279983
0.128693
0.126255
0.244267
0.143663
0.111069
0.215986
0.209317
0.0118194
0.0938838
0.207607
0.0860884
0.107555
0.0478763
0.0379077
0.155858
0.168213
0.114646
0.048258
0.106712
0.201498
0.161711
0.261334
0.289063
0.13745
0.163639
0.15145
0.109994
0.168869
0.124475
0.22069
0.0836452
0.156142
0.121172
0.105809
0.0950772
0.0626557
0.165086
0.0778627
0.127017
0.0579169
0.128447
0.0632154
0.094049
0.142363
0.09787
0.113091
0.0819145
0.0633276
0.059736
0.125853
0.0589035
0.0833883
0.0559669
0.0570393
0.0665323
0.0885045
0.0584755
0.0686843
0.0541385
0.0514468
0.0570706
0.0407059
0.0657313
0.0548234
0.0265354
0.0292568
0.0120652
0.0426203
0.0294063
0
1.66643
0.308349
0.864344
0.834688
0.826541
0.482078
0.137813
0.160672
0.26177
0.426615
0.0882637
0.458729
0.700659
0.715668
0.351815
0.201561
0.240563
0.564868
0.219701
0.179957
0.297857
0.103954
0.454131
0.304264
0.155748
0.152736
0.119296
0.28598
0.292634
0.237575
0.364373
0.206351
0.0402214
0.122875
0.229836
0.56836
0.215732
0.415561
0.146314
0.127708
0.277053
0.223759
0.177795
0.123569
0.0514844
0.171548
0.263274
0.143789
0.19328
0.229818
0.256047
0.110749
0.249195
0.0833013
0.0715355
0.196237
0.175067
0.268193
0.264432
0.091091
0.2209
0.111936
0.325791
0.373173
0.158813
0.202506
0.271015
0.173803
0.259473
0.232533
0.279785
0.187405
0.198241
0.122905
0.215311
0.386404
0.181828
0.148007
0.210471
0.104975
0.131104
0.283546
0.0927551
0.071092
0.164737
0.163659
0.0652624
0.0742925
0.151886
0.122848
0.240423
0.161971
0.142055
0.0422191
0.145966
0.0302058
0.0697664
0.08439
0.115237
0.0767589
0.0824156
0.0543481
0.148858
0.0747168
0.103749
0.112147
0.0405141
0.0595989
0.12099
0.0952991
0.0610446
0.0383364
0.0880474
0.0633657
0.0395673
0.0728654
0.0542528
0.0477206
0.0653994
0.0492565
0.0423934
0.0406091
0.0416519
0.025488
0.0295747
0.0277788
0.0380099
0.0210563
0.0281821
3.44578
4.28129
0.720532
1.27505
0.928788
1.32309
1.07717
0.336947
0.152211
0.817301
0.281338
0.401696
0.391556
0.219744
0.600836
0.496193
0.405583
0.306261
0.157769
0.386168
0.248194
0.314625
0.2177
0.12212
0.201278
0.136381
0.147832
0.113569
0.168681
0.122635
0.102468
0.157644
0.301272
0.510646
0.0824123
0.19365
0.237196
0.236646
0.121022
0.0649646
0.300411
0.110667
0.189317
0.283905
0.491373
0.152235
0.19809
0.282159
0.195345
0.182827
0.168787
0.235695
0.227074
0.232531
0.300993
0.217432
0.115898
0.0774705
0.0692554
0.277481
0.191514
0.103192
0.195469
0.102794
0.129577
0.117806
0.198661
0.107517
0.157925
0.176116
0.123931
0.236376
0.250752
0.141859
0.234007
0.188778
0.149131
0.144094
0.14794
0.156082
0.103505
0.239048
0.113674
0.0676674
0.0795028
0.197209
0.0821347
0.0663025
0.101877
0.0949479
0.10108
0.12451
0.104453
0.145169
0.0530247
0.121515
0.101481
0.104368
0.0837168
0.0789741
0.103219
0.0820248
0.0638816
0.0806433
0.083531
0.0313573
0.104265
0.0462621
0.0634583
0.0645434
0.0793709
0.0244178
0.0449773
0.0642012
0.038677
0.0433828
0.0501829
0.0633081
0.0352433
0.0394433
0.0376912
0.0473478
0.0271262
0.0374581
0.0511226
0.028041
0.0322683
0.0122526
0.0342062
0.0290324
3.83423
0.167007
0
0
0
0.312231
0
0
0
0
0.121505
0.195401
0.297387
0.0344681
0.0888774
0.277892
0.0821349
0.00443837
0.0336824
0.404607
0.37219
0.287741
0.171245
0.207273
0.0763208
0.17805
0.0702424
0.117659
0.0564401
0.0581178
0.151
0.199334
0.0928308
0.118256
0.242319
0.175718
0.144286
0.217012
0.09741
0.163623
0.205746
0.111459
0.16353
0.282639
0.0277965
0.17879
0.0462195
0.171658
0.117963
0.0904118
0.121233
0.0857016
0.125075
0.18047
0.168934
0.127412
0.097416
0.186212
0.0841674
0.219704
0.133638
0.0956926
0.108282
0.160073
0.0839401
0.166834
0.0747023
0.225132
0.105366
0.104662
0.0871048
0.0965249
0.161204
0.0912655
0.13406
0.126797
0.133655
0.0728808
0.130625
0.198648
0.106917
0.112378
0.141034
0.121267
0.0477158
0.114585
0.0581
0.14677
0.0490172
0.107136
0.0450008
0.0553954
0.150895
0.098728
0.0739728
0.0828109
0.0849233
0.0483239
0.0803842
0.0563066
0.0711861
0.0718745
0.0937003
0.038835
0.0549833
0.0900238
0.046587
0.0602489
0.0446464
0.0436292
0.0553806
0.0573366
0.0352015
0.0535589
0.0631425
0.0499105
0.0455278
0.0656028
0.0432904
0.0561444
0.0445195
0.0477131
0.0318353
0.0199674
0.0488522
0.0224372
0.0335612
0.0416042
0.0185862
0.0271186
2.37725
0.0452065
0.883383
0
0
0
0
0
0
0
0.0668847
0
0
0
0
0.0491929
0.0271055
0.0514909
0.0354687
0.20587
0.0827569
0.108294
0.176157
0.0635092
0.244963
0.123106
0.0964099
0.0604485
0.142031
0.113285
0.157491
0.159199
0.0493275
0.0620478
0.128047
0.0523317
0.117062
0.180136
0.177814
0.178383
0.2368
0.105726
0.070826
0.0460204
0.157406
0.224409
0.0739392
0.113922
0.100983
0.139524
0.144333
0.0926771
0.112079
0.166597
0.151836
0.121661
0.0983219
0.157019
0.0449217
0.114587
0.141428
0.105101
0.161707
0.0531584
0.143825
0.208558
0.0629185
0.163802
0.109903
0.167515
0.112409
0.175951
0.0970747
0.11198
0.143955
0.130219
0.0493931
0.120306
0.11619
0.099319
0.117553
0.0836154
0.110663
0.147274
0.0728056
0.113059
0.114086
0.187774
0.0847739
0.0408117
0.0701824
0.0649625
0.0919062
0.0848266
0.0841688
0.0531557
0.0389766
0.0723186
0.0763927
0.0711821
0.0526066
0.048449
0.0896805
0.0577812
0.055897
0.063645
0.0520097
0.0583
0.0562449
0.0283088
0.0590555
0.0595584
0.0484715
0.0386893
0.0381521
0.041325
0.0541389
0.0501264
0.0262735
0.0330713
0.0322575
0.0509287
0.0396572
0.0296144
0.0288663
0.0248048
0.0262038
0.0150911
0.0130378
0.0280077
0.457796
0.00954239
0
0
0
0
0
0
0
0
0
0
0
0
0
0
0
0.135388
0.0600103
0
0.0111643
0.13031
0.0922898
0.0644393
0.00773638
0.0275425
0.128664
0.0123175
0.034982
0
0.0427424
0.0124753
0.0372658
0.066308
0.0689073
0.117812
0.0473627
0.0439926
0.098012
0.00159552
0.136328
0.0421052
0.203051
0.0460558
0.238648
0.12744
0.0562032
0.0681288
0.0395437
0.129523
0.193959
0.0824229
0.0661174
0.0707682
0.0687942
0.154777
0.0875335
0.115044
0.160459
0.0353807
0.0567561
0.0141697
0.0205148
0.112281
0.0992469
0.193305
0.140479
0.107368
0.0971388
0.0593972
0.174005
0.118632
0.0976495
0.102341
0.123598
0.0802568
0.176627
0.132564
0.0815394
0.0629747
0.0519741
0.10069
0.119563
0.0805296
0.0711278
0.0651126
0.104404
0.0528353
0.0877781
0.0479816
0.0686995
0.0853269
0.0605488
0.0778848
0.116013
0.0826379
0.0536629
0.0545507
0.043344
0.0960018
0.0956856
0.0550848
0.051829
0.0518534
0.0571197
0.027116
0.0625835
0.0514083
0.063798
0.0483604
0.055082
0.0532047
0.0425872
0.0464703
0.0325533
0.0133835
0.0322241
0.0493825
0.0295381
0.0263718
0.0315588
0.0277776
0.0328345
0.0129615
0.0152092
0.025005
0.0201032
0.0126396
0.0124733
0.0237219
0.848078
0.0184412
0
0
0
0
0
0
0
0
0
0
0
0
0
0
0
0
0
0
0
0.183759
0
0
0
0.0486858
0
0.097143
0
0.0756352
0.0939659
0.0649412
0.149206
0.027489
0
0.116308
0.0175545
0
0.153367
0.0293988
0.0468521
0.0951846
0.0532102
0.0292461
0.0586837
0.0649868
0.0311672
0.0359904
0.0379599
0.0278442
0.0509241
0.0124731
0.05492
0.0236715
0.100171
0.0984447
0.0635193
0.0845221
0.0695456
0.0819007
0.0688919
0.0176673
0.0684752
0.0796599
0.0578103
0.102916
0.081113
0.0674285
0.0966527
0.0294209
0.0761661
0.100616
0.144176
0.0947151
0.0288667
0.0316483
0.0824861
0.0729435
0.0409634
0.093535
0.0795609
0.0795837
0.0257412
0.103934
0.0488787
0.0324489
0.106014
0.113415
0.0762834
0.0522093
0.0850988
0.0522747
0.0650945
0.0483009
0.0651818
0.0551522
0.0518984
0.032724
0.0500637
0.0337655
0.0475013
0.0726354
0.0670199
0.0366754
0.0838814
0.018208
0.0638752
0.0273238
0.0341671
0.0434067
0.041492
0.0293312
0.0384326
0.0383749
0.0247468
0.0359571
0.0258649
0.0222417
0.0190197
0.0280603
0.0206087
0.0240349
0.0242515
0.0218803
0.0244289
0.0203201
0.0210268
0.0268297
0.011907
0.00947709
0
0
0
0
0
0
0
0
0
0
0
0
0
0
0
0
0
0
0
0
0
0
0
0
0
0
0
0
0
0
0.0543544
0
0
0
0.0346801
0.00131905
0.0348768
0.078665
0.00371201
0.0109216
0
0.0264344
0.0152157
0.0570051
0.0183275
0.0274173
0.0393424
0.0517565
0.0119093
0.0170253
0.0367393
0.0611726
0.00599515
0.0404837
0.05015
0.0261225
0.037037
0.0341005
0.0591378
0.0398477
0.0533719
0.046284
0.0088145
0.0161007
0.0809977
0.0345375
0.0938372
0.0634348
0.0347394
0.0512344
0.0582063
0.127406
0.0578835
0.0582315
0.0701754
0.0361534
0.0796398
0.068955
0.0663113
0.0486429
0.0437618
0.0172064
0.0959619
0.059762
0.0776028
0.0745501
0.0412025
0.0738601
0.0672513
0.0442331
0.0493046
0.0600454
0.0451319
0.0392828
0.0857176
0.0607004
0.0316692
0.0312296
0.0483239
0.0464011
0.030427
0.0452557
0.0601217
0.0263653
0.0293053
0.0362851
0.0409121
0.0401638
0.0212617
0.0235526
0.0342346
0.0359933
0.0353333
0.0221835
0.0260277
0.0364968
0.0202638
0.0159212
0.033639
0.0229662
0.0335728
0.0269312
0.0214454
0.0204536
0.0119479
0.0214466
0.0135863
0.0239003
0.00927589
0.0167473
0
0
0
0
0
0
0
0
0
0
0
0
0
0
0
0
0
0
0
0
0
0
0
0
0
0
0
0
0
0
0
0
0
0
0
0
0.0590518
0
0
0
0.0295435
0
0.00976333
0.046271
0.0340928
0.0213239
0.0104689
0.0128954
0.0355336
0.00310044
0.00660006
0.0364825
0.0201844
0.0336008
0.00980679
0.0169763
0.0356983
0.0291634
0
0.0273867
0.029986
0.0136846
0.0277045
0.0686276
0.0311317
0.0331888
0.0585665
0.0534312
0.067004
0.0839724
0.030607
0.046931
0.070851
0.0218043
0.0605936
0.0602259
0.0276956
0.0475877
0.084216
0.0433928
0.0502018
0.0576834
0.065828
0.0618501
0.0396533
0.0747799
0.0569991
0.0568662
0.0652996
0.0634732
0.0406878
0.0425022
0.0522552
0.0434762
0.0192237
0.0545301
0.045303
0.0544246
0.0401165
0.0329186
0.0220304
0.0290203
0.0555682
0.0442091
0.0454583
0.0352648
0.0309716
0.0247975
0.040413
0.0337546
0.0345448
0.0246627
0.0298754
0.0294125
0.0287988
0.0149849
0.0209439
0.0169439
0.0219346
0.0271562
0.0166798
0.0268172
0.0184938
0.0149031
0.021572
0.0223154
0.0182395
0.015558
0.0068362
0.00997681
0
0
0
0
0
0
0
0
0
0
0
0
0
0
0
0
0
0
0
0
0
0
0
0
0
0
0
0
0
0
0
0
0
0
0
0
0
0
0
0
0.0185554
0.00072611
0
0.0108844
0.00324337
0.0479711
0.0477114
0.0404512
0.0180143
0.00896328
0
0.00883269
0.00966211
0.0140056
0.0284332
0.045312
0.00426735
0.0365929
0
0.0654162
0.0571143
0.00394123
0.036132
0.0410178
0.0405693
0.0578963
0.0435384
0.0699928
0.0252628
0.00885489
0.0841459
0.0480511
0.035585
0.0365507
0.0320946
0.00618407
0.0484938
0.0419563
0.0158176
0.0316366
0.049431
0.0230164
0.0148659
0.0321887
0.0713803
0.0303703
0.0456741
0.0414096
0.0379976
0.0289381
0.0239462
0.0404558
0.0456231
0.0555337
0.0245114
0.0470022
0.0312047
0.0466324
0.0176461
0.0328713
0.0301114
0.0170137
0.0422295
0.0268167
0.0284614
0.035264
0.0323874
0.0289977
0.0204879
0.0263362
0.0237395
0.0284822
0.018321
0.0240179
0.0236797
0.0193157
0.0192279
0.0114748
0.0188892
0.0166345
0.0140783
0.0169191
0.0110685
0.0129789
0.0141297
0.0103738
0.0201379
0.0114174
0.0110398
0.00797713
0
0
0
0
0
0
0
0
0
0
0
0
0
0
0
0
0
0
0
0
0
0
0
0
0
0
0
0
0
0
0
0
0
0
0
0
0
0
0
0
0
0
0
0
0
0
0.00661492
0.0100071
0.0108723
0.003044
0.015117
0
0.00303785
0.0126011
0.00897311
0.00393338
0.0074079
0.0172364
0.00731373
0.00300042
0.0245709
0.0360634
0.0224647
0.0114202
0.016636
0.00760903
0
0.010327
0.0293087
0.0413762
0.024813
0.0169032
0.0413838
0.0426105
0.050705
0.0281783
0.0412754
0.00878821
0.0291782
0.00768545
0.0490558
0.0248051
0.0404556
0.0362829
0.0103864
0.0348218
0.0364389
0.0236451
0.0373318
0.0206999
0.040878
0.0287094
0.0367263
0.01815
0.0291739
0.0388768
0.0454452
0.0132136
0.0341919
0.0237429
0.0270379
0.0249502
0.0268217
0.0287711
0.0366329
0.0408604
0.0262195
0.028612
0.0250876
0.014144
0.0270248
0.0175106
0.0273445
0.0145907
0.0192533
0.0165946
0.0202623
0.0161518
0.0203594
0.0148829
0.0148255
0.0147938
0.0167897
0.0110825
0.00944529
0.0146663
0.0117714
0.00839449
0.0130021
0.00897286
0
0
0
0
0
0
0
0
0
0
0
0
0
0
0
0
0
0
0
0
0
0
0
0
0
0
0
0
0
0
0
0
0
0
0
0
0
0
0
0
0
0
0
0
0
0
0
0
0.0310193
0
0
0
0.0151003
0
0
0.0131461
0.00075757
0.00766004
0
0.00225546
0
0.024747
0
0.0263903
0.0139971
0.00597779
0.00981081
0.00616501
0.0116188
0.0292455
0.00998584
0.0212261
0.0186799
0.0307377
0.0243418
0.0147596
0.0145351
0.0408112
0.0372922
0.024131
0.0329782
0.0259519
0.0221627
0.0290997
0.0241001
0.0473324
0.0208
0.0199365
0.0282871
0.0313185
0.0278016
0.0294134
0.0147825
0.0105745
0.0265391
0.0195605
0.0232964
0.0325384
0.0181045
0.0146452
0.0397766
0.0179033
0.0188953
0.0117727
0.0111879
0.0181389
0.0173916
0.0206306
0.0158661
0.0123181
0.00522799
0.0163506
0.0149964
0.0126864
0.0122462
0.0112202
0.0171982
0.0102759
0.0131893
0.00454212
0.0113586
0.0125729
0.012222
0.016809
0.00892789
0.0107838
0.0106454
0.00765774
0.0100571
0.0112425
0
0
0
0
0
0
0
0
0
0
0
0
0
0
0
0
0
0
0
0
0
0
0
0
0
0
0
0
0
0
0
0
0
0
0
0
0
0
0
0
0
0
0
0
0
0
0
0
0
0
0
0
0
0
0
0.011596
0
0.0100143
0
0.0041674
0
0
0.0116655
0.0098632
0.00946549
0.00122338
0.00541544
0.000541519
0.0151602
0.00577373
0.00499295
0.00663879
0.0102806
0.00337909
0.00450217
0.0264648
0.0204497
0.0121742
0.0112977
0.0128293
0.000680365
0.020323
0.0267009
0.0177607
0.0077791
0.0183679
0.02345
0.0194166
0.0250172
0.0214596
0.00674632
0.0269154
0.0112211
0.0192271
0.0120776
0.00844572
0.0263623
0.0120427
0.00968365
0.0167238
0.0163257
0.0159016
0.0163638
0.0111383
0.0176331
0.00911941
0.0155794
0.0163339
0.0200613
0.0112353
0.0102232
0.00915308
0.0144795
0.00989178
0.016807
0.0141008
0.0107072
0.00817834
0.00938347
0.0116126
0.0110824
0.0113609
0.0139651
0.00997175
0.0066582
0.00741387
0.00784234
0.00713119
0.00959475
0.00615544
0
0
0
0
0
0
0
0
0
0
0
0
0
0
0
0
0
0
0
0
0
0
0
0
0
0
0
0
0
0
0
0
0
0
0
0
0
0
0
0
0
0
0
0
0
0
0
0
0
0.013951
0
0
0
0
0.00522772
0
0
0
0
0
0.00878745
0.00771749
0.00580277
0
0.0046319
0.00553742
0.00692078
0.00531597
0.0141501
0.00545817
0.00509491
0.0126405
0.014163
0.0142671
0.0184613
0.00507922
0.00689354
0.00631914
0.00432786
0.00531813
0.0235208
0.0143368
0.00652165
0.00670855
0.0088433
0.0103392
0.014987
0.0169019
0.0185512
0.0135352
0.0201627
0.0114209
0.00889392
0.0121577
0.0177969
0.0106702
0.0123563
0.0105043
0.0198004
0.00641771
0.0116111
0.0107433
0.0197699
0.0124424
0.0161708
0.00833796
0.0156221
0.0144718
0.0100548
0.00976173
0.0157763
0.0173379
0.0123396
0.00876554
0.00811879
0.0111974
0.0103204
0.00765919
0.00898222
0.00880968
0.0052091
0.00603781
0.00560621
0.00654824
0.00744523
0.00669101
0.00791328
0.00483221
0.00861732
0.00353449
0
0
0
0
0
0
0
0
0
0
0
0
0
0
0
0
0
0
0
0
0
0
0
0
0
0
0
0
0
0
0
0
0
0
0
0
0
0
0
0
0
0
0
0
0
0
0
0
0
0
0
0
0
0
0
0
0
0
0
0.0014689
0
0
0.00339699
0.00508035
0
0
0
0
0
0
0.0101271
0.00269908
0.0087261
0.0018088
0.00166152
0.00828394
0.0031042
0.0103554
0.0040704
0.00641467
0.00200877
0.00578501
0.0067572
0.00853272
0.00623332
0.00715454
0.00671489
0.0118936
0.0185322
0.0153731
0.00429547
0.010729
0.00411795
0.0100153
0.00670439
0.00727856
0.0109159
0.014887
0.0123104
0.0103386
0.011406
0.0101332
0.0120037
0.0101969
0.00605256
0.0135547
0.00698163
0.00980749
0.010893
0.0046711
0.00735303
0.0122304
0.00940907
0.00654019
0.00934315
0.00636165
0.00792288
0.0048959
0.00493232
0.00698468
0.00560907
0.00404315
0.00643244
0.00504272
0.00585193
0.0049994
0.00269892
0.00370332
0.00594367
0.00405053
0
0
0
0
0
0
0
0
0
0
0
0
0
0
0
0
0
0
0
0
0
0
0
0
0
0
0
0
0
0
0
0
0
0
0
0
0
0
0
0
0
0
0
0
0
0
0
0
0
0
0
0
0
0
0
0
0.00279944
0
0
0
0
0
0
0
0
0.00320803
0
0.0026952
0
0
0.00207055
0
0.00263926
0.00446475
0.00386944
0.00547991
0.00258074
0.00200136
0.000785988
0.00504406
0.00216424
0.00125391
0.00412696
0.00436497
0.00375899
0.00902903
0.00868743
0.00636111
0.00045561
0.0059285
0.0100748
0.0031877
0.00314092
0.00996905
0.00609498
0.00940767
0.00428719
0.008472
0.00587826
0.00940769
0.00364828
0.00887996
0.00802684
0.00807005
0.00675077
0.00511271
0.00578367
0.00707371
0.0074003
0.00756915
0.0109027
0.00663835
0.00461592
0.00652191
0.00691937
0.00629451
0.00687166
0.00733064
0.00507026
0.00432941
0.00626171
0.00402709
0.00581375
0.00622678
0.00380025
0.004957
0.00304715
0.00327278
0.00363571
0.0037652
0
0
0
0
0
0
0
0
0
0
0
0
0
0
0
0
0
0
0
0
0
0
0
0
0
0
0
0
0
0
0
0
0
0
0
0
0
0
0
0
0
0
0
0
0
0
0
0
0
0
0
0
0
0
0
0
0
0
0
0
0
0
0
0.00203108
0
0.00240257
0
0
0
0
0
0.0022356
0.0025767
0
0
0.00355714
0.00351554
0.00296568
0.00745277
0
0.00221408
0
0.00179016
0.00387216
0
0.00612522
0.00194706
0.00776129
0.00362511
0.00419604
0.00271365
0.0046262
0.00518236
0.00742715
0.00401617
0.0048811
0.00603547
0.00665142
0.0036117
0.00510591
0.00681657
0.00411158
0.0078174
0.00440962
0.00564924
0.00523163
0.00486932
0.00421494
0.00460214
0.00544241
0.00735953
0.00486895
0.00561322
0.0064338
0.00401589
0.00542377
0.00342655
0.00456884
0.00525222
0.00345249
0.00362154
0.00419405
0.0025661
0.00316506
0.00390479
0.00225721
0.00290473
0.00527152
0.00201168
0.00328996
0
0
0
0
0
0
0
0
0
0
0
0
0
0
0
0
0
0
0
0
0
0
0
0
0
0
0
0
0
0
0
0
0
0
0
0
0
0
0
0
0
0
0
0
0
0
0
0
0
0
0
0
0
0
0
0
0
0
0
0
0
0
0
0
0
0
0
0
0
0
0
0
0
0
0.0049554
0.000317214
0
0
0.00184101
0.00140628
0.000803042
0.000920126
0
0.000821272
0
0.00095551
0
0.00190428
0.00184219
0.00412685
0.0033369
0.00110159
0.00457045
0.00202936
0.000482934
0.00772547
0.00388963
0.002264
0.00511912
0.00719167
0.00602913
0.00508935
0.00510287
0.00509056
0.00362177
0.00343975
0.0050627
0.00382177
0.00411529
0.00157546
0.00409084
0.0045524
0.00450651
0.0030178
0.00459431
0.00366065
0.0033858
0.00303439
0.00322678
0.00356763
0.00282354
0.00287859
0.00344243
0.00226342
0.00387033
0.00283515
0.00240918
0.00225214
0.00335903
0.00183562
0
0
0
0
0
0
0
0
0
0
0
0
0
0
0
0
0
0
0
0
0
0
0
0
0
0
0
0
0
0
0
0
0
0
0
0
0
0
0
0
0
0
0
0
0
0
0
0
0
0
0
0
0
0
0
0
0
0
0
0
0
0
0
0
0
0
0
0
0
0
0
0.000533515
0.000405898
0
0.00234605
0
0.000181475
0.00243585
0.00224775