/*--------------------------------*- C++ -*----------------------------------*\
| =========                 |                                                 |
| \\      /  F ield         | OpenFOAM: The Open Source CFD Toolbox           |
|  \\    /   O peration     | Version:  1.7.0                                 |
|   \\  /    A nd           | Web:      www.OpenFOAM.com                      |
|    \\/     M anipulation  |                                                 |
\*---------------------------------------------------------------------------*/
FoamFile
{
    version     2.0;
    format      ascii;
    class       volScalarField;
    location    "0.33";
    object      T;
}
// * * * * * * * * * * * * * * * * * * * * * * * * * * * * * * * * * * * * * //

dimensions      [0 0 0 1 0 0 0];

internalField   nonuniform List<scalar> 
5460
(
280
280.005
280.007
280.008
280.006
280.005
280
279.992
279.979
279.962
279.941
279.915
279.879
279.834
279.787
279.763
279.766
279.777
279.783
279.783
279.77
279.757
279.759
279.759
279.757
279.751
279.737
279.706
279.662
279.684
279.676
279.655
279.647
279.654
279.684
279.662
279.782
279.817
279.942
280.096
280.264
280.428
280.539
280.652
281.019
281.365
281.629
281.924
282.256
282.522
282.84
283.129
283.419
283.711
283.985
284.249
284.53
284.776
285.086
285.284
285.601
285.891
286.027
286.357
286.545
286.88
287.106
287.204
287.287
287.609
287.809
288.061
288.16
288.402
288.544
288.676
288.653
288.916
289.015
289.056
289.238
289.352
289.585
289.619
289.751
289.954
289.997
290.141
290.227
290.307
290.385
290.505
290.639
290.791
290.874
290.898
291.05
291.076
291.244
291.279
291.399
291.496
291.531
291.641
291.726
291.751
291.918
292.052
292.039
292.098
292.24
292.387
292.418
292.474
292.549
292.641
292.71
292.821
292.849
292.925
293.013
293.139
293.221
293.32
293.36
293.421
293.481
293.575
293.676
293.752
280
280.003
280.005
280.005
280.001
279.998
279.993
279.985
279.97
279.95
279.929
279.908
279.87
279.819
279.767
279.678
279.719
279.759
279.779
279.785
279.773
279.754
279.755
279.764
279.763
279.759
279.747
279.743
279.736
279.727
279.713
279.697
279.739
279.78
279.821
279.87
279.94
280.025
280.142
280.27
280.405
280.57
280.766
280.956
281.229
281.52
281.798
282.096
282.382
282.652
282.959
283.264
283.575
283.86
284.15
284.434
284.701
284.931
285.198
285.46
285.748
285.995
286.224
286.518
286.725
287.008
287.232
287.386
287.545
287.786
287.967
288.194
288.342
288.561
288.733
288.84
288.911
289.109
289.223
289.303
289.472
289.593
289.77
289.873
290.009
290.156
290.226
290.355
290.447
290.552
290.63
290.733
290.868
290.999
291.077
291.131
291.257
291.322
291.451
291.501
291.618
291.7
291.747
291.833
291.921
291.973
292.107
292.215
292.247
292.306
292.43
292.546
292.596
292.662
292.736
292.815
292.887
292.979
293.019
293.087
293.174
293.275
293.357
293.447
293.494
293.545
293.615
293.694
293.786
293.854
280
280.002
280.002
280.001
279.998
279.992
279.982
279.974
279.966
279.954
279.952
279.94
279.92
279.891
279.854
279.821
279.812
279.799
279.798
279.803
279.798
279.779
279.752
279.766
279.778
279.786
279.788
279.791
279.788
279.781
279.806
279.835
279.871
279.928
279.988
280.072
280.17
280.288
280.422
280.557
280.704
280.884
281.08
281.279
281.525
281.798
282.069
282.349
282.621
282.893
283.193
283.498
283.797
284.084
284.363
284.64
284.893
285.125
285.377
285.651
285.922
286.156
286.398
286.665
286.887
287.138
287.356
287.534
287.718
287.934
288.099
288.308
288.486
288.696
288.867
288.979
289.082
289.252
289.371
289.471
289.628
289.76
289.911
290.033
290.171
290.291
290.377
290.499
290.602
290.711
290.791
290.899
291.018
291.143
291.225
291.296
291.395
291.475
291.588
291.65
291.763
291.835
291.888
291.966
292.058
292.115
292.231
292.328
292.379
292.438
292.552
292.654
292.712
292.779
292.854
292.929
292.997
293.079
293.127
293.192
293.275
293.366
293.445
293.526
293.578
293.628
293.697
293.774
293.856
293.921
280
280.001
280.001
280
279.997
279.996
279.993
279.99
279.985
279.979
279.971
279.96
279.948
279.931
279.91
279.889
279.868
279.853
279.849
279.842
279.83
279.81
279.775
279.762
279.797
279.827
279.846
279.876
279.898
279.918
279.965
280.025
280.09
280.179
280.28
280.387
280.498
280.649
280.801
280.956
281.113
281.295
281.497
281.694
281.927
282.178
282.433
282.694
282.949
283.214
283.495
283.789
284.069
284.35
284.615
284.876
285.114
285.335
285.581
285.859
286.112
286.343
286.572
286.826
287.044
287.286
287.496
287.685
287.877
288.078
288.25
288.439
288.63
288.83
288.987
289.11
289.237
289.383
289.505
289.62
289.769
289.904
290.041
290.166
290.3
290.401
290.503
290.619
290.729
290.836
290.919
291.027
291.139
291.253
291.339
291.419
291.507
291.597
291.697
291.768
291.871
291.943
291.998
292.073
292.163
292.225
292.327
292.419
292.481
292.545
292.647
292.741
292.803
292.872
292.944
293.015
293.084
293.156
293.21
293.273
293.351
293.436
293.512
293.587
293.643
293.693
293.762
293.834
293.909
293.972
280
280.001
280
279.998
279.994
279.989
279.986
279.984
279.983
279.98
279.975
279.968
279.958
279.945
279.931
279.911
279.894
279.895
279.893
279.887
279.885
279.89
279.895
279.908
279.931
279.965
280.002
280.046
280.097
280.164
280.242
280.325
280.442
280.567
280.698
280.832
280.976
281.135
281.287
281.455
281.618
281.815
282.011
282.201
282.404
282.643
282.882
283.12
283.353
283.603
283.867
284.134
284.396
284.657
284.909
285.15
285.377
285.592
285.826
286.094
286.329
286.558
286.775
287.014
287.235
287.456
287.66
287.85
288.046
288.228
288.406
288.584
288.774
288.962
289.112
289.241
289.376
289.511
289.631
289.758
289.899
290.028
290.155
290.287
290.419
290.511
290.619
290.731
290.844
290.951
291.037
291.139
291.246
291.353
291.44
291.528
291.609
291.698
291.792
291.869
291.969
292.036
292.095
292.168
292.257
292.318
292.413
292.5
292.569
292.636
292.725
292.818
292.881
292.952
293.021
293.09
293.156
293.224
293.281
293.34
293.415
293.498
293.571
293.64
293.698
293.748
293.816
293.885
293.956
294.016
280
280
279.996
279.988
279.975
279.946
279.946
279.957
279.969
279.973
279.974
279.97
279.966
279.963
279.959
279.955
279.949
279.947
279.954
279.966
279.979
280.002
280.033
280.074
280.129
280.195
280.27
280.354
280.444
280.54
280.639
280.762
280.925
281.082
281.234
281.39
281.553
281.716
281.876
282.047
282.219
282.407
282.59
282.765
282.96
283.175
283.391
283.611
283.829
284.053
284.288
284.529
284.77
285.004
285.241
285.467
285.674
285.879
286.108
286.354
286.58
286.796
287.003
287.225
287.438
287.643
287.84
288.025
288.216
288.393
288.569
288.739
288.925
289.097
289.244
289.376
289.512
289.639
289.759
289.892
290.025
290.149
290.27
290.404
290.532
290.623
290.731
290.842
290.953
291.058
291.146
291.243
291.345
291.447
291.537
291.625
291.702
291.792
291.884
291.961
292.055
292.12
292.184
292.255
292.34
292.403
292.494
292.579
292.649
292.716
292.801
292.887
292.953
293.022
293.088
293.158
293.223
293.284
293.342
293.4
293.473
293.553
293.624
293.689
293.747
293.798
293.864
293.931
293.998
294.056
280
280
279.999
279.997
279.994
279.988
279.984
279.98
279.976
279.973
279.969
279.965
279.966
279.975
279.988
280.003
280.021
280.045
280.07
280.107
280.152
280.212
280.293
280.378
280.471
280.589
280.713
280.838
280.961
281.083
281.234
281.388
281.559
281.73
281.894
282.063
282.227
282.385
282.543
282.699
282.872
283.048
283.222
283.39
283.567
283.754
283.947
284.143
284.338
284.543
284.75
284.962
285.186
285.395
285.611
285.819
286.012
286.207
286.418
286.641
286.852
287.052
287.25
287.453
287.653
287.847
288.035
288.217
288.398
288.57
288.737
288.905
289.081
289.241
289.387
289.515
289.651
289.773
289.894
290.024
290.153
290.273
290.388
290.52
290.643
290.736
290.842
290.95
291.057
291.159
291.249
291.341
291.439
291.538
291.632
291.717
291.791
291.881
291.969
292.048
292.138
292.202
292.267
292.337
292.418
292.483
292.569
292.653
292.723
292.789
292.87
292.953
293.019
293.086
293.151
293.219
293.282
293.34
293.4
293.458
293.527
293.603
293.673
293.734
293.792
293.844
293.907
293.974
294.038
294.093
280
280.001
280.001
280.001
279.999
279.996
279.992
279.986
279.977
279.975
279.966
279.95
279.958
280.019
280.075
280.131
280.201
280.274
280.355
280.443
280.536
280.644
280.782
280.92
281.069
281.223
281.375
281.527
281.676
281.827
281.989
282.157
282.33
282.493
282.65
282.815
282.973
283.121
283.271
283.426
283.581
283.741
283.899
284.048
284.204
284.373
284.539
284.712
284.889
285.07
285.248
285.442
285.638
285.825
286.014
286.204
286.379
286.561
286.75
286.952
287.143
287.328
287.516
287.697
287.884
288.068
288.246
288.419
288.59
288.753
288.916
289.078
289.243
289.395
289.535
289.658
289.793
289.914
290.031
290.158
290.283
290.398
290.509
290.639
290.756
290.849
290.949
291.057
291.16
291.26
291.349
291.441
291.534
291.628
291.724
291.807
291.882
291.969
292.054
292.132
292.218
292.281
292.348
292.416
292.493
292.557
292.642
292.723
292.791
292.859
292.937
293.015
293.08
293.146
293.211
293.278
293.337
293.393
293.453
293.512
293.579
293.65
293.718
293.778
293.834
293.887
293.948
294.012
294.075
294.129
280
280.002
280.003
280.006
280.01
280.015
280.022
280.036
280.058
280.086
280.121
280.165
280.228
280.307
280.407
280.532
280.667
280.807
280.953
281.104
281.258
281.421
281.589
281.757
281.923
282.097
282.262
282.42
282.568
282.728
282.889
283.048
283.207
283.352
283.499
283.644
283.779
283.914
284.051
284.195
284.333
284.465
284.605
284.739
284.873
285.019
285.16
285.302
285.458
285.618
285.771
285.942
286.113
286.278
286.446
286.613
286.77
286.933
287.099
287.279
287.456
287.627
287.801
287.966
288.136
288.305
288.47
288.636
288.794
288.95
289.102
289.256
289.412
289.555
289.689
289.808
289.938
290.058
290.175
290.296
290.412
290.524
290.633
290.759
290.872
290.965
291.062
291.167
291.266
291.362
291.446
291.537
291.628
291.717
291.814
291.897
291.973
292.055
292.137
292.215
292.297
292.358
292.426
292.494
292.566
292.631
292.712
292.791
292.859
292.926
293
293.075
293.141
293.205
293.269
293.333
293.391
293.446
293.505
293.563
293.628
293.696
293.763
293.82
293.875
293.928
293.988
294.05
294.111
294.163
280.002
280.008
280.019
280.039
280.068
280.108
280.163
280.233
280.327
280.439
280.566
280.71
280.87
281.041
281.225
281.414
281.604
281.794
281.979
282.164
282.343
282.516
282.688
282.856
283.019
283.181
283.335
283.483
283.606
283.75
283.893
284.031
284.167
284.292
284.414
284.529
284.639
284.756
284.874
284.994
285.107
285.218
285.334
285.448
285.56
285.679
285.798
285.919
286.05
286.183
286.317
286.457
286.602
286.747
286.893
287.039
287.176
287.319
287.466
287.621
287.782
287.94
288.098
288.247
288.4
288.558
288.711
288.864
289.012
289.156
289.297
289.442
289.588
289.724
289.852
289.968
290.088
290.205
290.322
290.436
290.546
290.652
290.76
290.88
290.99
291.08
291.173
291.277
291.372
291.463
291.546
291.636
291.723
291.81
291.905
291.986
292.062
292.141
292.222
292.298
292.375
292.436
292.504
292.569
292.639
292.703
292.781
292.858
292.925
292.991
293.062
293.134
293.199
293.261
293.325
293.387
293.443
293.497
293.555
293.612
293.676
293.741
293.806
293.862
293.915
293.969
294.027
294.087
294.147
294.198
280.025
280.078
280.162
280.28
280.429
280.609
280.817
281.048
281.293
281.543
281.792
282.029
282.263
282.484
282.694
282.894
283.082
283.261
283.425
283.585
283.747
283.895
284.035
284.172
284.3
284.424
284.548
284.661
284.764
284.869
284.968
285.077
285.179
285.273
285.368
285.456
285.535
285.622
285.719
285.815
285.901
285.989
286.079
286.167
286.258
286.351
286.447
286.547
286.654
286.761
286.871
286.986
287.108
287.231
287.352
287.475
287.594
287.715
287.845
287.982
288.123
288.265
288.407
288.538
288.678
288.821
288.959
289.099
289.238
289.37
289.5
289.636
289.772
289.901
290.022
290.131
290.244
290.359
290.472
290.579
290.684
290.787
290.89
291.004
291.109
291.196
291.289
291.388
291.48
291.568
291.649
291.735
291.818
291.905
291.996
292.076
292.151
292.227
292.306
292.379
292.453
292.514
292.581
292.644
292.71
292.775
292.849
292.925
292.991
293.055
293.122
293.194
293.258
293.318
293.381
293.44
293.494
293.548
293.605
293.66
293.723
293.785
293.848
293.903
293.956
294.009
294.065
294.124
294.181
294.232
280.468
280.981
281.512
282.012
282.472
282.881
283.244
283.557
283.818
284.035
284.223
284.389
284.528
284.654
284.775
284.897
285.01
285.11
285.198
285.29
285.378
285.461
285.544
285.62
285.698
285.776
285.85
285.918
285.979
286.041
286.103
286.164
286.227
286.291
286.35
286.401
286.449
286.512
286.577
286.645
286.705
286.766
286.829
286.893
286.96
287.032
287.103
287.179
287.263
287.346
287.432
287.523
287.621
287.717
287.818
287.92
288.021
288.126
288.234
288.351
288.476
288.6
288.724
288.84
288.963
289.092
289.216
289.343
289.469
289.59
289.711
289.834
289.96
290.083
290.196
290.3
290.406
290.516
290.623
290.725
290.827
290.925
291.023
291.134
291.233
291.315
291.405
291.5
291.59
291.674
291.754
291.833
291.914
292
292.088
292.164
292.24
292.314
292.389
292.46
292.53
292.592
292.656
292.717
292.783
292.846
292.918
292.991
293.056
293.118
293.183
293.252
293.316
293.374
293.435
293.493
293.545
293.598
293.654
293.708
293.769
293.829
293.89
293.944
293.996
294.048
294.102
294.16
294.216
294.266
294.431
292.622
291.324
290.258
289.438
288.831
288.407
288.121
287.91
287.744
287.628
287.53
287.45
287.386
287.327
287.294
287.27
287.251
287.233
287.211
287.204
287.204
287.209
287.217
287.228
287.242
287.255
287.268
287.28
287.294
287.309
287.324
287.339
287.359
287.385
287.401
287.419
287.449
287.484
287.517
287.545
287.581
287.615
287.651
287.69
287.74
287.789
287.841
287.901
287.96
288.021
288.088
288.159
288.232
288.308
288.391
288.475
288.561
288.651
288.746
288.852
288.959
289.064
289.167
289.273
289.383
289.493
289.607
289.72
289.83
289.941
290.051
290.165
290.279
290.384
290.483
290.583
290.686
290.786
290.882
290.98
291.072
291.168
291.271
291.363
291.442
291.529
291.618
291.705
291.787
291.865
291.941
292.017
292.1
292.183
292.258
292.332
292.405
292.476
292.545
292.611
292.672
292.734
292.795
292.858
292.921
292.989
293.06
293.124
293.184
293.247
293.313
293.376
293.432
293.492
293.548
293.599
293.65
293.705
293.758
293.816
293.874
293.934
293.987
294.037
294.088
294.141
294.197
294.252
294.3
297.361
297.026
296.424
295.746
295.029
294.317
293.668
293.05
292.468
291.948
291.491
291.095
290.755
290.47
290.213
289.997
289.815
289.652
289.498
289.348
289.233
289.135
289.047
288.973
288.909
288.847
288.795
288.745
288.7
288.657
288.617
288.583
288.555
288.532
288.51
288.49
288.475
288.465
288.464
288.461
288.458
288.465
288.469
288.476
288.492
288.509
288.535
288.561
288.594
288.628
288.664
288.707
288.751
288.798
288.851
288.91
288.973
289.038
289.11
289.184
289.271
289.358
289.444
289.529
289.617
289.708
289.805
289.902
290.002
290.1
290.197
290.296
290.399
290.502
290.597
290.69
290.782
290.877
290.969
291.058
291.15
291.238
291.327
291.421
291.509
291.584
291.666
291.747
291.833
291.911
291.987
292.06
292.131
292.21
292.289
292.362
292.434
292.504
292.572
292.637
292.701
292.761
292.819
292.88
292.94
293.001
293.068
293.135
293.198
293.257
293.316
293.379
293.44
293.496
293.553
293.608
293.658
293.707
293.761
293.813
293.868
293.924
293.981
294.034
294.082
294.132
294.183
294.238
294.292
294.339
297.797
297.703
297.523
297.53
297.404
297.156
296.809
296.386
295.91
295.403
294.901
294.428
293.98
293.564
293.179
292.818
292.484
292.176
291.896
291.634
291.407
291.198
291.012
290.85
290.701
290.565
290.442
290.326
290.217
290.115
290.022
289.936
289.861
289.791
289.723
289.664
289.608
289.56
289.518
289.48
289.445
289.418
289.391
289.37
289.351
289.339
289.339
289.34
289.345
289.35
289.36
289.378
289.397
289.418
289.446
289.481
289.521
289.564
289.615
289.67
289.734
289.801
289.866
289.932
290
290.071
290.153
290.234
290.319
290.402
290.485
290.57
290.662
290.753
290.838
290.922
291.005
291.09
291.175
291.259
291.342
291.424
291.506
291.589
291.671
291.743
291.817
291.892
291.974
292.05
292.122
292.191
292.259
292.333
292.405
292.478
292.547
292.613
292.678
292.739
292.8
292.858
292.913
292.973
293.03
293.09
293.153
293.217
293.278
293.336
293.392
293.452
293.511
293.566
293.621
293.674
293.722
293.77
293.822
293.873
293.925
293.978
294.033
294.085
294.132
294.18
294.23
294.283
294.335
294.381
297.854
297.817
297.815
297.842
297.86
297.854
297.82
297.745
297.613
297.409
297.137
296.809
296.443
296.056
295.665
295.278
294.897
294.536
294.198
293.877
293.572
293.292
293.034
292.794
292.569
292.355
292.158
291.977
291.807
291.648
291.499
291.363
291.235
291.118
291.005
290.901
290.808
290.721
290.641
290.568
290.496
290.434
290.372
290.321
290.269
290.232
290.203
290.175
290.151
290.127
290.11
290.103
290.096
290.093
290.094
290.103
290.12
290.14
290.167
290.203
290.244
290.29
290.333
290.377
290.425
290.477
290.539
290.606
290.674
290.742
290.808
290.879
290.957
291.035
291.109
291.184
291.253
291.33
291.408
291.483
291.558
291.631
291.705
291.779
291.853
291.922
291.988
292.058
292.132
292.204
292.271
292.336
292.402
292.47
292.536
292.605
292.671
292.734
292.795
292.852
292.91
292.965
293.019
293.075
293.13
293.189
293.247
293.308
293.367
293.422
293.476
293.533
293.589
293.642
293.695
293.746
293.794
293.839
293.89
293.938
293.988
294.039
294.091
294.141
294.187
294.233
294.281
294.332
294.383
294.427
297.852
297.915
297.942
297.952
297.957
297.962
297.965
297.967
297.964
297.95
297.915
297.846
297.73
297.56
297.338
297.073
296.777
296.463
296.141
295.816
295.493
295.188
294.907
294.631
294.365
294.107
293.865
293.636
293.42
293.209
293.011
292.829
292.653
292.493
292.339
292.192
292.058
291.932
291.812
291.705
291.6
291.501
291.411
291.327
291.248
291.179
291.118
291.061
291.008
290.959
290.915
290.879
290.845
290.817
290.791
290.776
290.769
290.766
290.77
290.781
290.799
290.822
290.843
290.867
290.895
290.927
290.969
291.018
291.068
291.12
291.17
291.224
291.286
291.351
291.415
291.477
291.536
291.6
291.668
291.732
291.798
291.863
291.928
291.992
292.058
292.121
292.179
292.242
292.309
292.376
292.438
292.499
292.56
292.622
292.683
292.746
292.808
292.868
292.925
292.98
293.033
293.084
293.134
293.188
293.239
293.296
293.351
293.409
293.465
293.518
293.569
293.623
293.676
293.727
293.777
293.826
293.872
293.917
293.964
294.01
294.057
294.106
294.156
294.203
294.248
294.291
294.337
294.386
294.435
294.479
297.999
297.998
297.998
297.997
297.997
297.997
297.997
297.997
297.997
297.997
297.996
297.994
297.987
297.972
297.94
297.88
297.784
297.645
297.464
297.248
297.005
296.749
296.486
296.219
295.953
295.69
295.433
295.184
294.943
294.71
294.485
294.275
294.072
293.878
293.691
293.511
293.338
293.176
293.025
292.881
292.743
292.612
292.49
292.373
292.267
292.168
292.075
291.989
291.909
291.834
291.763
291.699
291.641
291.586
291.537
291.498
291.465
291.439
291.418
291.406
291.398
291.397
291.397
291.4
291.407
291.421
291.441
291.471
291.503
291.535
291.57
291.607
291.654
291.703
291.752
291.802
291.849
291.901
291.956
292.011
292.066
292.122
292.174
292.23
292.285
292.34
292.393
292.448
292.507
292.567
292.624
292.679
292.736
292.792
292.846
292.903
292.961
293.016
293.069
293.12
293.17
293.217
293.263
293.314
293.362
293.414
293.466
293.521
293.574
293.624
293.672
293.723
293.771
293.82
293.867
293.913
293.958
294.001
294.045
294.089
294.134
294.179
294.227
294.272
294.314
294.355
294.399
294.446
294.493
294.535
298
298
298
298
298
298
298
298
298
298
298
298
298
297.999
297.998
297.996
297.991
297.978
297.951
297.902
297.824
297.711
297.565
297.388
297.189
296.974
296.749
296.519
296.289
296.059
295.833
295.612
295.397
295.187
294.984
294.786
294.594
294.412
294.236
294.067
293.902
293.745
293.595
293.448
293.312
293.186
293.065
292.951
292.845
292.745
292.649
292.559
292.475
292.396
292.324
292.261
292.204
292.154
292.111
292.072
292.041
292.015
291.992
291.974
291.962
291.957
291.957
291.965
291.977
291.99
292.009
292.031
292.058
292.091
292.124
292.16
292.196
292.234
292.275
292.319
292.363
292.406
292.45
292.494
292.54
292.585
292.631
292.678
292.728
292.781
292.831
292.88
292.93
292.981
293.03
293.079
293.129
293.179
293.228
293.276
293.322
293.364
293.406
293.452
293.497
293.545
293.594
293.644
293.693
293.74
293.786
293.833
293.878
293.923
293.967
294.011
294.053
294.094
294.135
294.176
294.219
294.261
294.305
294.348
294.388
294.427
294.468
294.513
294.558
294.599
298
298
298
298
298
298
298
298
298
298
298
298
298
298
298
298
298
298
297.999
297.997
297.993
297.982
297.961
297.922
297.859
297.767
297.647
297.501
297.334
297.152
296.959
296.761
296.56
296.358
296.157
295.959
295.763
295.572
295.386
295.204
295.025
294.854
294.688
294.526
294.369
294.219
294.073
293.935
293.804
293.681
293.563
293.449
293.342
293.24
293.144
293.058
292.979
292.905
292.839
292.775
292.721
292.673
292.628
292.59
292.557
292.532
292.514
292.5
292.492
292.488
292.485
292.492
292.502
292.516
292.534
292.555
292.575
292.601
292.629
292.658
292.689
292.722
292.755
292.788
292.822
292.858
292.895
292.933
292.975
293.019
293.061
293.103
293.146
293.19
293.233
293.273
293.318
293.362
293.406
293.448
293.488
293.527
293.565
293.606
293.647
293.69
293.734
293.781
293.826
293.869
293.911
293.954
293.996
294.038
294.078
294.119
294.158
294.197
294.235
294.273
294.313
294.352
294.393
294.432
294.47
294.507
294.546
294.588
294.629
294.668
298
298
298
298
298
298
298
298
298
298
298
298
298
298
298
298
298
298
298
298
298
298
297.999
297.998
297.994
297.987
297.97
297.94
297.89
297.816
297.718
297.597
297.456
297.3
297.134
296.961
296.784
296.605
296.425
296.246
296.069
295.894
295.722
295.554
295.389
295.227
295.069
294.917
294.77
294.628
294.491
294.357
294.229
294.106
293.991
293.883
293.782
293.686
293.598
293.515
293.438
293.366
293.301
293.244
293.192
293.148
293.11
293.076
293.046
293.022
293.003
292.991
292.982
292.977
292.978
292.984
292.99
293.002
293.015
293.031
293.047
293.068
293.088
293.111
293.135
293.159
293.186
293.215
293.247
293.281
293.314
293.349
293.385
293.422
293.456
293.49
293.526
293.565
293.601
293.638
293.672
293.707
293.741
293.777
293.813
293.851
293.891
293.932
293.973
294.013
294.05
294.089
294.126
294.165
294.201
294.238
294.274
294.31
294.345
294.381
294.417
294.452
294.489
294.526
294.562
294.595
294.632
294.671
294.708
294.746
298
298
298
298
298
298
298
298
298
298
298
298
298
298
298
298
298
298
298
298
298
298
298
298
298
298
297.999
297.998
297.996
297.99
297.978
297.956
297.917
297.859
297.78
297.679
297.561
297.428
297.284
297.132
296.975
296.815
296.653
296.491
296.329
296.168
296.009
295.852
295.696
295.548
295.402
295.258
295.117
294.982
294.85
294.722
294.602
294.487
294.38
294.278
294.181
294.089
294.006
293.927
293.858
293.795
293.737
293.684
293.635
293.592
293.556
293.524
293.498
293.475
293.46
293.449
293.44
293.434
293.433
293.435
293.438
293.445
293.454
293.465
293.477
293.488
293.506
293.525
293.546
293.57
293.595
293.621
293.649
293.677
293.703
293.73
293.758
293.788
293.818
293.848
293.875
293.905
293.935
293.966
293.998
294.031
294.064
294.1
294.135
294.171
294.205
294.238
294.271
294.305
294.338
294.37
294.403
294.436
294.467
294.5
294.533
294.564
294.597
294.63
294.663
294.695
294.728
294.763
294.798
294.833
298
298
298
298
298
298
298
298
298
298
298
298
298
298
298
298
298
298
298
298
298
298
298
298
298
298
298
298
298
298
298
297.999
297.997
297.994
297.985
297.969
297.94
297.896
297.833
297.751
297.651
297.538
297.413
297.279
297.139
296.995
296.849
296.701
296.552
296.404
296.258
296.112
295.968
295.828
295.689
295.554
295.424
295.296
295.173
295.054
294.94
294.832
294.73
294.636
294.548
294.466
294.39
294.319
294.252
294.193
294.138
294.089
294.045
294.007
293.975
293.945
293.922
293.902
293.886
293.873
293.863
293.855
293.851
293.849
293.85
293.85
293.854
293.862
293.872
293.886
293.902
293.918
293.937
293.955
293.974
293.993
294.012
294.035
294.057
294.08
294.101
294.124
294.148
294.174
294.2
294.228
294.255
294.285
294.314
294.345
294.373
294.402
294.431
294.46
294.488
294.516
294.545
294.574
294.602
294.631
294.66
294.688
294.717
294.747
294.776
294.805
294.835
294.866
294.897
294.93
298
298
298
298
298
298
298
298
298
298
298
298
298
298
298
298
298
298
298
298
298
298
298
298
298
298
298
298
298
298
298
298
298
298
298
297.999
297.998
297.996
297.991
297.979
297.959
297.926
297.877
297.812
297.729
297.633
297.524
297.406
297.282
297.151
297.019
296.884
296.748
296.612
296.475
296.341
296.208
296.077
295.948
295.822
295.7
295.581
295.466
295.356
295.252
295.154
295.062
294.975
294.893
294.817
294.746
294.68
294.62
294.566
294.517
294.474
294.434
294.399
294.369
294.341
294.315
294.295
294.279
294.264
294.251
294.241
294.233
294.228
294.227
294.23
294.235
294.243
294.251
294.259
294.268
294.279
294.291
294.305
294.318
294.334
294.349
294.364
294.382
294.401
294.421
294.443
294.464
294.488
294.512
294.536
294.559
294.582
294.606
294.631
294.654
294.678
294.702
294.727
294.752
294.776
294.802
294.826
294.851
294.876
294.902
294.927
294.954
294.981
295.009
295.039
298
298
298
298
298
298
298
298
298
298
298
298
298
298
298
298
298
298
298
298
298
298
298
298
298
298
298
298
298
298
298
298
298
298
298
298
298
298
298
298
297.999
297.998
297.994
297.987
297.974
297.95
297.914
297.863
297.796
297.715
297.621
297.518
297.407
297.291
297.17
297.047
296.922
296.797
296.672
296.547
296.424
296.303
296.184
296.069
295.957
295.849
295.744
295.643
295.548
295.458
295.372
295.292
295.217
295.148
295.084
295.026
294.972
294.922
294.877
294.835
294.798
294.764
294.733
294.706
294.681
294.658
294.639
294.623
294.61
294.602
294.597
294.593
294.59
294.589
294.589
294.591
294.593
294.598
294.604
294.611
294.619
294.627
294.638
294.65
294.664
294.679
294.695
294.711
294.729
294.747
294.763
294.781
294.8
294.82
294.837
294.856
294.876
294.896
294.916
294.936
294.957
294.978
294.998
295.019
295.041
295.063
295.086
295.109
295.133
295.16
298
298
298
298
298
298
298
298
298
298
298
298
298
298
298
298
298
298
298
298
298
298
298
298
298
298
298
298
298
298
298
298
298
298
298
298
298
298
298
298
298
298
298
298
298
297.999
297.997
297.993
297.984
297.968
297.943
297.904
297.852
297.785
297.706
297.616
297.517
297.414
297.306
297.194
297.081
296.967
296.852
296.739
296.627
296.517
296.409
296.304
296.202
296.103
296.007
295.915
295.827
295.745
295.667
295.596
295.529
295.466
295.408
295.353
295.303
295.256
295.213
295.173
295.136
295.101
295.07
295.044
295.021
295
294.983
294.969
294.955
294.943
294.934
294.927
294.92
294.916
294.914
294.912
294.913
294.913
294.917
294.922
294.928
294.936
294.945
294.955
294.966
294.977
294.987
294.999
295.013
295.026
295.038
295.052
295.066
295.081
295.097
295.112
295.128
295.144
295.16
295.177
295.195
295.213
295.232
295.251
295.272
295.294
298
298
298
298
298
298
298
298
298
298
298
298
298
298
298
298
298
298
298
298
298
298
298
298
298
298
298
298
298
298
298
298
298
298
298
298
298
298
298
298
298
298
298
298
298
298
298
298
298
297.999
297.998
297.996
297.991
297.981
297.964
297.937
297.897
297.845
297.78
297.704
297.619
297.528
297.431
297.332
297.23
297.127
297.025
296.923
296.822
296.722
296.624
296.528
296.435
296.346
296.259
296.176
296.097
296.022
295.952
295.887
295.825
295.767
295.712
295.66
295.612
295.566
295.525
295.486
295.452
295.421
295.393
295.368
295.344
295.322
295.304
295.286
295.271
295.258
295.247
295.237
295.229
295.222
295.218
295.215
295.214
295.215
295.217
295.22
295.223
295.227
295.232
295.238
295.244
295.251
295.259
295.266
295.276
295.285
295.295
295.305
295.316
295.328
295.339
295.352
295.364
295.378
295.392
295.407
295.425
295.443
298
298
298
298
298
298
298
298
298
298
298
298
298
298
298
298
298
298
298
298
298
298
298
298
298
298
298
298
298
298
298
298
298
298
298
298
298
298
298
298
298
298
298
298
298
298
298
298
298
298
298
298
298
298
297.999
297.998
297.996
297.99
297.979
297.962
297.934
297.895
297.845
297.784
297.713
297.635
297.551
297.464
297.374
297.283
297.191
297.099
297.008
296.919
296.831
296.745
296.662
296.582
296.503
296.428
296.357
296.288
296.223
296.162
296.104
296.049
295.997
295.948
295.904
295.862
295.823
295.788
295.754
295.724
295.695
295.668
295.644
295.622
295.602
295.583
295.568
295.554
295.541
295.531
295.522
295.515
295.509
295.505
295.502
295.499
295.497
295.496
295.496
295.497
295.498
295.5
295.503
295.507
295.511
295.517
295.522
295.529
295.536
295.543
295.551
295.56
295.57
295.581
295.594
295.609
298
298
298
298
298
298
298
298
298
298
298
298
298
298
298
298
298
298
298
298
298
298
298
298
298
298
298
298
298
298
298
298
298
298
298
298
298
298
298
298
298
298
298
298
298
298
298
298
298
298
298
298
298
298
298
298
298
298
298
297.999
297.998
297.995
297.99
297.979
297.962
297.936
297.9
297.854
297.798
297.734
297.664
297.589
297.511
297.43
297.349
297.269
297.189
297.109
297.031
296.955
296.88
296.807
296.737
296.669
296.603
296.54
296.479
296.421
296.368
296.317
296.269
296.225
296.182
296.142
296.105
296.07
296.037
296.006
295.978
295.952
295.928
295.906
295.886
295.868
295.851
295.836
295.823
295.811
295.801
295.791
295.783
295.775
295.768
295.762
295.757
295.753
295.75
295.748
295.747
295.747
295.747
295.748
295.75
295.752
295.755
295.759
295.765
295.771
295.78
295.79
298
298
298
298
298
298
298
298
298
298
298
298
298
298
298
298
298
298
298
298
298
298
298
298
298
298
298
298
298
298
298
298
298
298
298
298
298
298
298
298
298
298
298
298
298
298
298
298
298
298
298
298
298
298
298
298
298
298
298
298
298
298
298
298
297.999
297.998
297.996
297.99
297.981
297.966
297.944
297.913
297.872
297.824
297.768
297.707
297.642
297.573
297.504
297.433
297.363
297.293
297.223
297.155
297.088
297.022
296.958
296.896
296.837
296.78
296.724
296.671
296.621
296.573
296.528
296.485
296.444
296.406
296.37
296.337
296.305
296.276
296.248
296.222
296.199
296.176
296.156
296.137
296.119
296.102
296.087
296.073
296.059
296.047
296.035
296.025
296.016
296.009
296.002
295.996
295.991
295.986
295.983
295.98
295.978
295.978
295.978
295.98
295.984
295.99
298
298
298
298
298
298
298
298
298
298
298
298
298
298
298
298
298
298
298
298
298
298
298
298
298
298
298
298
298
298
298
298
298
298
298
298
298
298
298
298
298
298
298
298
298
298