/*--------------------------------*- C++ -*----------------------------------*\
| =========                 |                                                 |
| \\      /  F ield         | OpenFOAM: The Open Source CFD Toolbox           |
|  \\    /   O peration     | Version:  1.7.0                                 |
|   \\  /    A nd           | Web:      www.OpenFOAM.com                      |
|    \\/     M anipulation  |                                                 |
\*---------------------------------------------------------------------------*/
FoamFile
{
    version     2.0;
    format      ascii;
    class       volVectorField;
    location    "0.33";
    object      U;
}
// * * * * * * * * * * * * * * * * * * * * * * * * * * * * * * * * * * * * * //

dimensions      [0 1 -1 0 0 0 0];

internalField   nonuniform List<vector> 
5460
(
(31.9641 0.00256943 -5.87256e-19)
(31.9503 0.00375621 -1.16509e-18)
(31.9215 0.00445857 -8.62003e-18)
(31.8836 0.00475417 -1.22446e-16)
(31.8437 0.00484058 -1.65736e-15)
(31.8037 0.00485745 -5.94314e-15)
(31.7633 0.00483543 -2.46674e-14)
(31.7222 0.00479682 -1.04119e-13)
(31.6807 0.0047635 -2.40915e-12)
(31.6387 0.0047379 -2.33637e-12)
(31.5962 0.00471466 -1.80342e-12)
(31.5531 0.00469347 -9.18429e-13)
(31.5094 0.00467698 -5.15038e-13)
(31.4651 0.00466641 -2.87765e-13)
(31.4201 0.00466218 -1.34099e-13)
(31.3742 0.00466576 -1.28301e-14)
(31.3274 0.00467839 8.56028e-14)
(31.2797 0.0046996 1.55252e-13)
(31.2308 0.00472962 -4.16121e-14)
(31.1807 0.00477116 6.42392e-14)
(31.1291 0.00482839 1.75545e-13)
(31.0759 0.00490648 2.48463e-13)
(31.0208 0.00501236 2.51145e-13)
(30.9633 0.00515487 2.22983e-13)
(30.9029 0.00534297 4.98673e-13)
(30.839 0.005588 1.01182e-12)
(30.7706 0.00590583 1.63634e-12)
(30.6968 0.00631652 1.98873e-12)
(30.616 0.0068446 2.07826e-12)
(30.5265 0.00752044 2.0027e-12)
(30.426 0.00837745 1.83278e-12)
(30.3117 0.00945191 1.56698e-12)
(30.1803 0.0107817 1.28064e-12)
(30.0277 0.0123999 6.91955e-13)
(29.8495 0.0143245 3.33993e-13)
(29.641 0.0165486 -9.43027e-12)
(29.3974 0.0190261 -3.37221e-12)
(29.1149 0.0216686 -1.05439e-12)
(28.7908 0.0243516 -3.11512e-13)
(28.4242 0.0269303 1.093e-11)
(28.0162 0.0292636 2.22552e-12)
(27.57 0.0312368 9.28535e-13)
(27.0902 0.0327749 5.21489e-13)
(26.5825 0.0338485 3.16077e-13)
(26.0532 0.0344675 -2.86519e-13)
(25.5081 0.0346716 -3.74291e-13)
(24.9531 0.0345159 -6.97946e-14)
(24.3931 0.0340621 -1.44986e-13)
(23.8324 0.0333715 -3.95063e-13)
(23.2746 0.0325004 -1.01294e-12)
(22.7226 0.0314976 -5.49828e-13)
(22.1786 0.0304027 6.94474e-13)
(21.6445 0.0292477 3.24653e-13)
(21.1217 0.0280582 -6.62202e-12)
(20.6111 0.0268546 -8.90505e-13)
(20.1136 0.0256517 -6.47838e-14)
(19.6297 0.0244614 -1.12374e-17)
(19.1597 0.0232937 3.46664e-13)
(18.7038 0.0221562 2.33321e-13)
(18.2621 0.0210544 4.65369e-13)
(17.8345 0.0199923 1.3765e-12)
(17.4208 0.018973 6.49442e-13)
(17.0208 0.0179977 -5.11808e-12)
(16.6341 0.0170665 -9.889e-13)
(16.2606 0.0161788 -4.79566e-13)
(15.8998 0.0153339 -6.75367e-12)
(15.5513 0.0145307 -1.08824e-12)
(15.2149 0.0137676 5.87526e-12)
(14.8901 0.0130432 1.01824e-12)
(14.5766 0.0123566 1.53246e-14)
(14.2739 0.0117061 2.79375e-13)
(13.9819 0.0110901 1.1458e-12)
(13.6999 0.0105069 -9.07511e-16)
(13.4278 0.00995501 -7.36957e-13)
(13.1651 0.00943283 -1.06223e-13)
(12.9115 0.00893873 9.21147e-14)
(12.6668 0.00847117 1.22588e-13)
(12.4304 0.00802877 4.80845e-14)
(12.2023 0.00761036 -1.50516e-12)
(11.9819 0.00721456 1.37297e-12)
(11.7692 0.00684003 5.98099e-13)
(11.5637 0.00648559 2.47154e-13)
(11.3653 0.00615015 4.7509e-13)
(11.1736 0.00583279 9.80109e-13)
(10.9885 0.00553242 6.70013e-12)
(10.8097 0.00524799 1.1583e-12)
(10.6369 0.00497861 4.06525e-13)
(10.4699 0.00472348 -2.33389e-13)
(10.3086 0.00448185 5.94469e-14)
(10.1527 0.00425295 9.93434e-13)
(10.0021 0.00403601 5.8713e-13)
(9.85653 0.00383032 -5.03511e-13)
(9.71585 0.00363524 1.38768e-12)
(9.5799 0.0034502 3.15433e-13)
(9.44851 0.00327465 8.6128e-14)
(9.32153 0.00310804 -9.12992e-13)
(9.19882 0.00294978 -4.81352e-13)
(9.08024 0.00279938 -1.82789e-12)
(8.96567 0.0026564 2.31893e-13)
(8.85499 0.00252041 9.56655e-13)
(8.74808 0.00239104 5.93385e-13)
(8.64483 0.00226795 -2.24388e-12)
(8.54514 0.0021508 6.07236e-13)
(8.4489 0.0020392 -1.74855e-13)
(8.35602 0.00193281 -2.50184e-12)
(8.26642 0.00183131 -8.90317e-13)
(8.18002 0.00173438 6.05668e-12)
(8.09674 0.00164172 2.11898e-14)
(8.01652 0.00155303 -7.8396e-13)
(7.93931 0.00146804 9.47353e-13)
(7.86504 0.00138654 -7.01743e-12)
(7.79368 0.00130838 -1.1114e-12)
(7.72518 0.0012335 -4.04045e-14)
(7.65948 0.00116194 -3.27957e-14)
(7.59652 0.00109379 -2.90762e-13)
(7.53622 0.00102924 -2.2336e-13)
(7.47848 0.000968539 -1.26861e-13)
(7.42317 0.000911975 6.55243e-13)
(7.37015 0.00085985 -5.91993e-13)
(7.31923 0.00081242 -1.96504e-13)
(7.2702 0.000769896 -1.24091e-12)
(7.22283 0.000732312 1.31907e-12)
(7.17687 0.000699816 7.10865e-12)
(7.13202 0.000671497 5.10382e-13)
(7.08816 0.000648102 2.08973e-13)
(7.04484 0.000623523 1.06273e-13)
(7.0028 0.000607847 7.20017e-12)
(6.96 0.000557757 8.97781e-14)
(6.92394 0.000566709 2.1116e-12)
(6.87748 0.000320784 -3.26385e-13)
(31.8618 0.00557994 -2.08573e-19)
(31.85 0.00907323 -2.27695e-18)
(31.8227 0.0110035 -2.2058e-17)
(31.7859 0.0118173 -4.85659e-16)
(31.7468 0.0121384 -7.3731e-15)
(31.7073 0.0122652 -2.39627e-14)
(31.6673 0.0122555 -9.95319e-14)
(31.6265 0.0121822 -2.70809e-13)
(31.5852 0.0121135 -5.72368e-12)
(31.5433 0.0120596 -3.33529e-12)
(31.5009 0.012008 -1.94036e-12)
(31.4578 0.0119596 -1.19491e-12)
(31.4141 0.0119223 -7.39261e-13)
(31.3697 0.0118996 -4.59435e-13)
(31.3246 0.011893 -1.42728e-13)
(31.2786 0.0119071 1.43272e-13)
(31.2316 0.0119455 3.80913e-13)
(31.1835 0.0120075 5.38283e-13)
(31.1342 0.0120944 -3.79399e-13)
(31.0834 0.0122138 2.86116e-13)
(31.0311 0.0123772 6.72701e-13)
(30.9768 0.0125986 8.14626e-13)
(30.9201 0.0128969 7.19628e-13)
(30.8606 0.0132961 5.89223e-13)
(30.7976 0.0138205 1.70051e-12)
(30.7302 0.0145006 3.44665e-12)
(30.6575 0.0153786 5.40588e-12)
(30.578 0.0165074 6.05886e-12)
(30.4902 0.0179501 6.03511e-12)
(30.392 0.0197842 5.63879e-12)
(30.281 0.0220917 5.06621e-12)
(30.1541 0.0249579 4.22789e-12)
(30.0082 0.028467 3.4032e-12)
(29.8395 0.032684 1.50657e-12)
(29.6442 0.0376326 8.76605e-13)
(29.4185 0.0432746 -7.28353e-12)
(29.1591 0.0494822 -4.09373e-12)
(28.8635 0.0560369 -1.90272e-12)
(28.5302 0.0626464 -4.98628e-13)
(28.1592 0.0689785 9.05427e-12)
(27.752 0.0747111 4.28633e-12)
(27.3112 0.0795787 1.98295e-12)
(26.8409 0.0834023 1.35576e-12)
(26.3456 0.0861046 8.3924e-13)
(25.8306 0.0876998 -1.11715e-12)
(25.3009 0.0882734 -1.0557e-12)
(24.7615 0.0879516 -1.58149e-13)
(24.2168 0.0868792 -4.30004e-13)
(23.6709 0.0852035 -1.16201e-12)
(23.127 0.0830622 -2.95936e-12)
(22.5879 0.0805769 -1.49789e-12)
(22.0559 0.0778468 2.32018e-12)
(21.5328 0.074953 9.51177e-13)
(21.02 0.0719614 -1.01459e-11)
(20.5185 0.0689242 -1.51025e-12)
(20.0292 0.0658807 -8.26119e-14)
(19.5528 0.0628622 2.47035e-15)
(19.0895 0.0598948 1.03027e-12)
(18.6398 0.0569992 6.55562e-13)
(18.2036 0.05419 1.34425e-12)
(17.781 0.0514783 4.02453e-12)
(17.3718 0.0488727 1.83693e-12)
(16.9759 0.046377 -8.83822e-12)
(16.593 0.0439917 -2.46353e-12)
(16.2228 0.0417159 -1.286e-12)
(15.8651 0.0395483 -8.63375e-12)
(15.5194 0.037486 -2.63991e-12)
(15.1855 0.0355254 5.27024e-12)
(14.863 0.0336633 2.63088e-12)
(14.5516 0.0318971 -8.34328e-14)
(14.2509 0.0302232 8.02739e-13)
(13.9605 0.0286374 3.31671e-12)
(13.6802 0.0271354 -4.7196e-14)
(13.4095 0.0257134 -2.14346e-12)
(13.1482 0.0243676 -2.56883e-13)
(12.8958 0.0230937 2.70136e-13)
(12.6522 0.0218879 3.50284e-13)
(12.4169 0.0207467 1.39015e-13)
(12.1896 0.0196671 -4.35243e-12)
(11.9702 0.0186456 5.2045e-12)
(11.7582 0.0176788 1.5396e-12)
(11.5535 0.0167637 6.8866e-13)
(11.3558 0.0158975 1.31762e-12)
(11.1648 0.0150779 2.82727e-12)
(10.9802 0.014302 8.69971e-12)
(10.8019 0.0135672 3.50254e-12)
(10.6296 0.0128712 1.12776e-12)
(10.4631 0.0122119 -6.48045e-13)
(10.3022 0.0115874 1.75514e-13)
(10.1468 0.0109958 2.85271e-12)
(9.9965 0.010435 1.66193e-12)
(9.85127 0.00990331 -1.46654e-12)
(9.71091 0.00939901 4.03035e-12)
(9.57525 0.00892059 8.71042e-13)
(9.44414 0.00846671 2.41504e-13)
(9.31742 0.00803589 -2.62271e-12)
(9.19495 0.00762666 -1.3571e-12)
(9.07659 0.00723774 -5.23152e-12)
(8.96223 0.00686797 7.11619e-13)
(8.85175 0.00651629 2.74013e-12)
(8.74502 0.00618172 1.6905e-12)
(8.64194 0.00586338 -6.38224e-12)
(8.54241 0.00556038 1.7777e-12)
(8.44632 0.00527174 -5.10925e-13)
(8.35358 0.00499657 -7.2036e-12)
(8.26411 0.00473405 -2.51324e-12)
(8.17783 0.00448335 6.91926e-12)
(8.09467 0.00424368 -7.0651e-14)
(8.01457 0.00401427 -2.28023e-12)
(7.93745 0.00379444 2.47997e-12)
(7.86329 0.00358363 -7.5954e-12)
(7.79202 0.00338147 -3.06612e-12)
(7.7236 0.00318778 -9.31794e-14)
(7.65798 0.00300266 -9.29365e-14)
(7.5951 0.00282638 -8.30359e-13)
(7.53487 0.0026594 -6.34219e-13)
(7.4772 0.00250236 -3.60088e-13)
(7.42196 0.00235603 1.87373e-12)
(7.36899 0.00222118 -1.70075e-12)
(7.31813 0.00209847 -5.53201e-13)
(7.26915 0.00198845 -3.5538e-12)
(7.22182 0.00189121 3.77559e-12)
(7.17591 0.00180712 9.64563e-12)
(7.13111 0.00173386 1.3933e-12)
(7.08728 0.00167327 5.90557e-13)
(7.044 0.00160981 2.98491e-13)
(7.00199 0.00156894 9.84287e-12)
(6.95922 0.00144045 2.03621e-13)
(6.92319 0.00146114 5.94868e-12)
(6.87676 0.00083125 -9.54006e-13)
(31.6503 0.00826517 -6.33652e-20)
(31.6377 0.0142049 -3.52124e-18)
(31.6099 0.0172077 -8.06543e-17)
(31.5728 0.0183631 -2.06146e-15)
(31.5337 0.0188774 -3.88925e-14)
(31.4943 0.0191238 -1.00309e-13)
(31.4543 0.0191351 -4.57931e-13)
(31.4137 0.0190388 -6.45521e-13)
(31.3724 0.0189529 1.05151e-12)
(31.3305 0.0188884 2.57964e-12)
(31.288 0.0188231 1.87329e-12)
(31.2448 0.0187608 1.18132e-12)
(31.201 0.0187164 6.53541e-13)
(31.1563 0.0186968 3.43492e-13)
(31.1108 0.0187057 9.02638e-13)
(31.0643 0.0187529 1.22675e-12)
(31.0167 0.0188473 1.39344e-12)
(30.9676 0.0189897 1.41803e-12)
(30.917 0.0191857 -3.66594e-12)
(30.8644 0.019452 2.92874e-12)
(30.8096 0.0198119 2.13809e-12)
(30.752 0.0202929 1.87719e-12)
(30.6911 0.0209314 9.61169e-13)
(30.6259 0.0217732 5.54728e-13)
(30.5556 0.0228636 6.36311e-12)
(30.4788 0.0242584 1.07306e-11)
(30.3942 0.0260313 1.47696e-11)
(30.3001 0.0282685 1.19642e-11)
(30.1942 0.0310666 1.01205e-11)
(30.0744 0.034533 8.60073e-12)
(29.938 0.0387654 7.28444e-12)
(29.7823 0.0438442 5.37707e-12)
(29.6046 0.0498252 4.16927e-12)
(29.4023 0.0567166 -7.9272e-13)
(29.1734 0.064458 7.73451e-13)
(28.9162 0.072915 -1.02255e-13)
(28.6296 0.0818601 -6.51016e-14)
(28.3133 0.0909906 3.28667e-13)
(27.9676 0.0999566 6.86845e-13)
(27.5932 0.108391 2.67802e-12)
(27.1917 0.11595 2.32629e-12)
(26.765 0.122352 1.30918e-12)
(26.3156 0.127396 1.79035e-12)
(25.8465 0.130986 1.10154e-12)
(25.361 0.133124 -3.63363e-12)
(24.8628 0.133896 -1.81021e-12)
(24.3554 0.133444 1.86452e-14)
(23.8424 0.131937 -9.01368e-13)
(23.3269 0.129562 -2.30749e-12)
(22.8118 0.126499 -5.25902e-12)
(22.2997 0.122911 -1.97985e-12)
(21.7927 0.118938 5.64853e-12)
(21.2926 0.114697 1.49722e-12)
(20.8009 0.110284 -3.56779e-12)
(20.3187 0.105779 3.81873e-14)
(19.847 0.101242 1.93564e-13)
(19.3864 0.0967215 -5.35411e-15)
(18.9377 0.0922606 1.95712e-12)
(18.501 0.0878924 1.01408e-12)
(18.0767 0.0836414 2.34128e-12)
(17.6649 0.0795266 7.65601e-12)
(17.2655 0.075563 2.8032e-12)
(16.8784 0.071758 -5.79249e-12)
(16.5035 0.0681141 -3.00872e-12)
(16.1406 0.0646311 -1.85622e-12)
(15.7894 0.0613084 -4.01985e-12)
(15.4498 0.0581423 -3.76906e-12)
(15.1214 0.0551284 -1.74715e-13)
(14.8039 0.0522625 4.35752e-12)
(14.497 0.0495411 1.38774e-13)
(14.2004 0.0469593 1.3863e-12)
(13.9139 0.044511 4.78521e-12)
(13.637 0.0421903 -3.98085e-13)
(13.3695 0.0399913 -4.40018e-12)
(13.1111 0.0379087 -2.29117e-13)
(12.8614 0.0359361 5.00921e-13)
(12.6202 0.0340678 5.90398e-13)
(12.3872 0.0322986 2.45715e-13)
(12.162 0.030624 -6.602e-12)
(11.9445 0.0290388 1.12038e-12)
(11.7343 0.0275378 2.2631e-12)
(11.5312 0.0261165 1.04746e-12)
(11.3349 0.0247706 2.50662e-12)
(11.1453 0.0234967 4.7202e-12)
(10.962 0.0222903 7.35455e-12)
(10.7849 0.0211474 4.89457e-12)
(10.6137 0.0200646 1.75138e-12)
(10.4482 0.0190387 -1.17783e-12)
(10.2883 0.0180667 3.3679e-13)
(10.1337 0.0171457 4.92712e-12)
(9.9842 0.0162724 2.70227e-12)
(9.83973 0.0154442 -2.62106e-12)
(9.70007 0.0146586 7.19893e-12)
(9.56506 0.0139132 1.28771e-12)
(9.43455 0.0132059 3.78806e-13)
(9.3084 0.0125345 -4.52109e-12)
(9.18645 0.0118966 -2.17176e-12)
(9.06859 0.0112903 -8.89287e-12)
(8.95469 0.0107138 1.45579e-12)
(8.84463 0.0101654 4.26509e-12)
(8.7383 0.00964364 2.86464e-12)
(8.6356 0.00914716 -1.1635e-11)
(8.53642 0.00867454 3.03704e-12)
(8.44066 0.0082243 -9.18169e-13)
(8.34823 0.00779503 -1.2593e-11)
(8.25905 0.00738546 -3.99441e-12)
(8.17304 0.00699431 4.15568e-13)
(8.09014 0.00662034 -3.25795e-13)
(8.01027 0.00626236 -3.9219e-12)
(7.93338 0.0059193 4.80549e-12)
(7.85943 0.0055903 -7.14481e-12)
(7.78836 0.00527478 -5.68746e-12)
(7.72014 0.00497247 -4.63289e-14)
(7.6547 0.00468352 -1.51824e-13)
(7.59198 0.00440837 -1.39728e-12)
(7.53191 0.00414773 -1.04397e-12)
(7.47438 0.0039026 -5.92125e-13)
(7.41928 0.00367419 3.16442e-12)
(7.36645 0.00346369 -2.94252e-12)
(7.3157 0.00327216 -8.81259e-13)
(7.26684 0.00310043 -5.80812e-12)
(7.21962 0.00294865 6.4262e-12)
(7.17379 0.00281739 6.94037e-12)
(7.12909 0.00270306 2.07654e-12)
(7.08535 0.00260844 9.57525e-13)
(7.04214 0.00250964 4.75221e-13)
(7.00021 0.00244527 8.15858e-12)
(6.95751 0.00224664 1.03918e-13)
(6.92153 0.00227422 9.29379e-12)
(6.87517 0.0013016 -1.74748e-12)
(31.3235 0.0116376 -4.559e-20)
(31.3097 0.0201656 -9.31743e-18)
(31.2806 0.024162 -2.67575e-16)
(31.2428 0.0255979 -8.80979e-15)
(31.2033 0.0263051 -2.44395e-13)
(31.1637 0.0266635 -4.18273e-13)
(31.1235 0.0266752 -2.62496e-12)
(31.0826 0.0265446 -2.10928e-12)
(31.0411 0.0264407 -3.89694e-12)
(30.999 0.0263684 -9.48698e-13)
(30.9562 0.0262947 -1.60161e-13)
(30.9127 0.0262298 -1.34024e-13)
(30.8683 0.026198 -1.60905e-13)
(30.823 0.0262116 -1.33959e-13)
(30.7766 0.0262796 3.88468e-12)
(30.7288 0.0264221 3.50311e-12)
(30.6793 0.0266581 3.02101e-12)
(30.6278 0.0269955 2.63029e-12)
(30.5738 0.0274508 1.66677e-12)
(30.5169 0.0280585 1.79706e-12)
(30.4562 0.0288629 1.83451e-12)
(30.3909 0.0299155 1.72617e-12)
(30.32 0.0312812 -2.06561e-12)
(30.2423 0.0330382 -9.33438e-13)
(30.1561 0.0352604 4.72617e-12)
(30.0599 0.0380317 4.56019e-12)
(29.9517 0.0414514 9.89516e-12)
(29.8294 0.0456199 1.21484e-11)
(29.6911 0.050629 9.75626e-12)
(29.5345 0.0565591 8.02178e-12)
(29.3579 0.0634447 6.73055e-12)
(29.1599 0.0712724 2.15213e-12)
(28.9393 0.0799831 2.94848e-12)
(28.6959 0.0894618 2.08339e-12)
(28.4297 0.0995342 4.21309e-12)
(28.1412 0.109987 3.50161e-12)
(27.8313 0.120554 2.91794e-12)
(27.5008 0.130946 2.38425e-12)
(27.1507 0.140869 1.98063e-12)
(26.782 0.150031 1.26094e-12)
(26.3957 0.158163 1.1396e-12)
(25.9927 0.165036 1.0418e-13)
(25.5741 0.170469 3.02391e-12)
(25.1413 0.174358 1.06967e-12)
(24.696 0.17668 -1.80422e-12)
(24.2401 0.177491 -1.65706e-12)
(23.7758 0.176904 -3.55762e-12)
(23.3054 0.175074 -2.00537e-12)
(22.8314 0.172184 -3.49519e-12)
(22.356 0.168425 -2.32067e-13)
(21.8812 0.163979 -1.09799e-12)
(21.4092 0.159008 1.60185e-12)
(20.9415 0.153651 8.05959e-13)
(20.4796 0.148032 -1.30708e-12)
(20.0248 0.142252 2.3248e-12)
(19.5782 0.136391 3.94877e-13)
(19.1406 0.130517 -1.30294e-13)
(18.7127 0.12469 3.49073e-12)
(18.2951 0.118956 1.12789e-12)
(17.8881 0.113353 3.60805e-12)
(17.4919 0.107908 5.29288e-12)
(17.1068 0.102646 3.01248e-12)
(16.7327 0.0975784 -6.78943e-12)
(16.3697 0.0927121 -3.24141e-12)
(16.0175 0.0880488 -2.22555e-12)
(15.6762 0.0835901 -2.48488e-12)
(15.3454 0.0793331 -4.91751e-12)
(15.0251 0.0752731 -1.84757e-12)
(14.7151 0.0714058 1.50459e-12)
(14.415 0.067728 2.90798e-12)
(14.1246 0.0642339 2.12861e-12)
(13.8437 0.0609163 4.09298e-12)
(13.5721 0.0577677 -1.27387e-12)
(13.3093 0.0547811 -1.92928e-12)
(13.0552 0.0519497 1.88696e-13)
(12.8096 0.0492654 8.05382e-13)
(12.572 0.0467208 8.43691e-13)
(12.3423 0.0443092 3.83488e-13)
(12.1203 0.0420251 -7.50993e-12)
(11.9056 0.0398614 -6.36332e-13)
(11.6981 0.0378113 2.5643e-12)
(11.4974 0.0358689 1.29716e-12)
(11.3034 0.0340286 -1.20845e-14)
(11.1158 0.0322857 3.38888e-12)
(10.9345 0.0306345 6.81562e-12)
(10.7591 0.0290696 4.48655e-12)
(10.5896 0.0275863 2.11651e-12)
(10.4256 0.0261803 -1.36916e-12)
(10.2671 0.0248478 5.78474e-13)
(10.1138 0.0235846 7.30383e-12)
(9.96559 0.0223867 3.6417e-12)
(9.82226 0.0212502 -4.72221e-12)
(9.68365 0.0201719 4.11668e-12)
(9.54963 0.0191484 1.38601e-12)
(9.42003 0.0181771 4.88857e-13)
(9.29473 0.0172547 -6.71506e-12)
(9.17358 0.0163783 -2.84359e-12)
(9.05646 0.015545 -1.29875e-11)
(8.94325 0.0147525 -3.02214e-12)
(8.83384 0.0139986 1.01574e-12)
(8.72812 0.0132811 4.15128e-12)
(8.62598 0.0125983 -1.14179e-11)
(8.52733 0.0119482 1.13058e-13)
(8.43207 0.0113287 -1.46575e-12)
(8.34011 0.010738 -1.32199e-11)
(8.25137 0.0101743 -5.1342e-12)
(8.16577 0.00963595 -2.43883e-12)
(8.08325 0.00912112 -5.85347e-13)
(8.00375 0.00862824 -5.99902e-12)
(7.92721 0.00815586 2.11392e-12)
(7.85358 0.00770278 -7.15241e-12)
(7.78282 0.00726823 -3.11742e-12)
(7.71488 0.00685184 1.78777e-13)
(7.64971 0.00645383 -2.11703e-13)
(7.58724 0.00607482 -2.00393e-12)
(7.52741 0.00571579 -1.44229e-12)
(7.47011 0.00537812 -8.17401e-13)
(7.41522 0.00506349 4.56947e-12)
(7.36258 0.00477356 -4.40433e-12)
(7.31202 0.00450976 -1.1443e-12)
(7.26333 0.00427326 -7.99037e-12)
(7.21626 0.00406426 9.48697e-12)
(7.17059 0.00388353 5.8582e-12)
(7.12602 0.00372618 2.66173e-12)
(7.08241 0.00359589 1.29545e-12)
(7.03932 0.00346005 6.30315e-13)
(6.9975 0.00337106 3.16171e-12)
(6.9549 0.00309857 -1.9349e-13)
(6.91902 0.00313349 6.8121e-12)
(6.87276 0.00179894 -2.83362e-12)
(30.8724 0.0157086 -1.8931e-18)
(30.8563 0.026811 -3.35852e-17)
(30.8252 0.0315233 -7.18882e-16)
(30.7862 0.0330804 -3.21099e-14)
(30.7462 0.0339287 -1.84333e-12)
(30.7061 0.0343515 -1.40276e-12)
(30.6654 0.0343235 -1.41947e-12)
(30.6241 0.0341465 -1.42228e-12)
(30.5823 0.034033 -1.586e-12)
(30.5396 0.0339695 -1.34934e-12)
(30.4962 0.0339134 -1.13606e-12)
(30.4517 0.0338883 -9.7401e-13)
(30.4061 0.0339331 -8.5795e-13)
(30.359 0.0340704 -7.03929e-13)
(30.3101 0.0343217 3.60046e-12)
(30.2589 0.0347271 2.91024e-12)
(30.2049 0.0353253 2.54602e-12)
(30.1473 0.0361403 2.29655e-12)
(30.0853 0.037211 2.00211e-12)
(30.0179 0.0386018 1.81569e-12)
(29.9438 0.0403886 1.68546e-12)
(29.8618 0.0426542 1.57425e-12)
(29.7701 0.0454944 9.57387e-13)
(29.6671 0.0490128 6.02534e-13)
(29.551 0.0532885 1.12583e-12)
(29.42 0.0583926 1.57219e-12)
(29.2725 0.0643889 2.68545e-12)
(29.107 0.0713112 3.83964e-12)
(28.9227 0.0791532 4.22851e-12)
(28.719 0.0878772 4.26004e-12)
(28.496 0.0973812 4.0908e-12)
(28.2542 0.107517 3.66441e-12)
(27.9946 0.118119 3.34684e-12)
(27.7184 0.129001 2.84197e-12)
(27.4271 0.139967 3.04287e-12)
(27.1219 0.150837 5.47858e-12)
(26.8041 0.161416 3.91486e-12)
(26.4747 0.171515 3.22432e-12)
(26.1345 0.180958 2.57703e-12)
(25.784 0.18957 -6.0347e-13)
(25.4234 0.197178 2.23064e-13)
(25.0528 0.203623 -2.03748e-12)
(24.6725 0.208752 -8.01709e-14)
(24.2825 0.212459 -8.48664e-14)
(23.8834 0.214686 -3.1463e-12)
(23.4758 0.215443 -1.49189e-12)
(23.0608 0.214789 -2.61819e-12)
(22.6395 0.21283 -2.23772e-12)
(22.2135 0.209714 -2.81026e-12)
(21.7844 0.205606 -1.16564e-12)
(21.3539 0.200685 -1.13119e-12)
(20.9235 0.195109 9.39301e-14)
(20.4948 0.189028 2.05922e-13)
(20.0693 0.182576 -6.24768e-13)
(19.6482 0.175875 5.13968e-13)
(19.2326 0.169019 -6.58151e-14)
(18.8235 0.162092 -4.95358e-13)
(18.4217 0.15517 1.13859e-12)
(18.028 0.148316 6.48007e-13)
(17.6429 0.141579 5.10516e-12)
(17.2667 0.134999 4.62852e-12)
(16.8998 0.12861 3.03869e-12)
(16.5423 0.122432 -4.98211e-12)
(16.1944 0.116477 -3.01683e-12)
(15.8561 0.11075 -2.4522e-12)
(15.5274 0.105258 -1.75528e-12)
(15.2082 0.1 -2.74949e-12)
(14.8985 0.0949729 -1.79952e-12)
(14.598 0.090173 2.12082e-13)
(14.3068 0.0855987 3.54694e-12)
(14.0245 0.0812445 2.63305e-12)
(13.751 0.0771029 3.34172e-12)
(13.4861 0.0731659 1.54788e-13)
(13.2296 0.0694259 -6.8204e-13)
(12.9813 0.0658752 7.88556e-13)
(12.7408 0.0625048 1.16758e-12)
(12.5081 0.0593061 1.10477e-12)
(12.2829 0.0562712 5.36802e-13)
(12.065 0.0533939 -8.41945e-12)
(11.8541 0.0506657 -4.44455e-12)
(11.65 0.0480784 1.74654e-12)
(11.4526 0.0456251 1.37049e-12)
(11.2615 0.0432989 1.25128e-12)
(11.0767 0.0410944 2.80901e-12)
(10.8979 0.0390044 5.38311e-12)
(10.7249 0.0370224 3.81128e-12)
(10.5575 0.0351426 2.38625e-12)
(10.3956 0.0333599 -6.40746e-13)
(10.239 0.0316695 9.66894e-13)
(10.0874 0.0300663 1.06257e-11)
(9.9408 0.0285452 4.38488e-12)
(9.79897 0.0271015 -1.53638e-12)
(9.66176 0.0257311 2.74352e-12)
(9.52904 0.0244299 1.39027e-12)
(9.40067 0.0231946 5.83962e-13)
(9.2765 0.0220212 -9.73745e-12)
(9.15641 0.0209058 -3.26907e-12)
(9.04028 0.019845 -1.73311e-11)
(8.92799 0.0188359 -6.1115e-12)
(8.81945 0.0178755 -1.48448e-12)
(8.71453 0.0169614 1.42059e-12)
(8.61315 0.0160911 -8.85303e-12)
(8.5152 0.0152624 -1.73434e-12)
(8.4206 0.0144725 -2.01418e-12)
(8.32926 0.0137192 -1.51706e-11)
(8.24111 0.0130001 -5.94679e-12)
(8.15606 0.0123132 -2.25415e-12)
(8.07406 0.0116562 -6.82343e-13)
(7.99504 0.011027 -4.0816e-12)
(7.91896 0.010424 8.89942e-13)
(7.84576 0.00984544 -3.72938e-12)
(7.77541 0.0092905 2.25667e-12)
(7.70785 0.0087587 4.97205e-13)
(7.64304 0.00825033 -2.82295e-13)
(7.58092 0.0077662 -2.66986e-12)
(7.5214 0.00730758 -1.82074e-12)
(7.4644 0.00687625 -1.03292e-12)
(7.40979 0.00647437 6.05155e-12)
(7.35742 0.00610405 -6.3908e-12)
(7.3071 0.00576714 -1.29871e-12)
(7.25863 0.00546513 -8.39295e-12)
(7.21178 0.00519829 1.32271e-11)
(7.16631 0.00496759 5.41924e-12)
(7.12192 0.00476678 3.17608e-12)
(7.07848 0.00460052 1.59689e-12)
(7.03555 0.00442725 7.65902e-13)
(6.99388 0.0043135 -2.35038e-12)
(6.95143 0.00396588 -5.56683e-13)
(6.91565 0.00400892 4.96895e-12)
(6.86953 0.00230498 -4.10984e-12)
(30.2794 0.0205268 -9.63849e-18)
(30.2611 0.0341551 -1.59218e-16)
(30.2279 0.0392169 -8.87736e-16)
(30.188 0.0407582 -1.34237e-14)
(30.1476 0.0417285 -3.62174e-13)
(30.107 0.0421736 -5.48699e-13)
(30.0658 0.0420783 -6.92812e-13)
(30.024 0.041874 -7.83432e-13)
(29.9813 0.0418039 -8.80755e-13)
(29.9376 0.0418231 -9.28885e-13)
(29.8924 0.041886 -9.4305e-13)
(29.8455 0.0420429 -9.37489e-13)
(29.7964 0.0423586 -9.18523e-13)
(29.7446 0.042877 -8.64891e-13)
(29.6892 0.0436449 4.29048e-14)
(29.6293 0.0447383 5.6488e-13)
(29.5639 0.0462295 8.36012e-13)
(29.4916 0.0481674 9.81102e-13)
(29.411 0.0506206 1.03249e-12)
(29.3206 0.0536835 1.03594e-12)
(29.2188 0.0574506 1.07016e-12)
(29.1039 0.0620057 1.09604e-12)
(28.9743 0.067425 9.53458e-13)
(28.8289 0.0737666 6.91596e-13)
(28.6664 0.081021 5.63985e-13)
(28.4865 0.0891453 6.36959e-13)
(28.289 0.098071 9.1541e-13)
(28.0747 0.107689 1.32332e-12)
(27.8444 0.117858 1.68581e-12)
(27.5995 0.128434 1.94089e-12)
(27.3415 0.139237 2.11143e-12)
(27.072 0.150088 4.24313e-12)
(26.7927 0.160838 3.23723e-12)
(26.505 0.171358 2.78219e-12)
(26.2102 0.181535 2.4467e-12)
(25.9092 0.191295 3.33675e-12)
(25.6028 0.200549 3.40573e-12)
(25.2915 0.209212 3.05609e-12)
(24.9754 0.217213 2.54079e-12)
(24.6546 0.224464 6.62414e-13)
(24.3288 0.230871 2.21392e-13)
(23.9976 0.236329 -1.26916e-12)
(23.6605 0.240713 -8.9016e-13)
(23.3171 0.243913 -8.46473e-13)
(22.967 0.245847 -2.45594e-12)
(22.6102 0.246479 -1.78578e-13)
(22.2467 0.24581 -2.4483e-12)
(21.8771 0.243885 -2.29514e-12)
(21.502 0.240795 -2.28831e-12)
(21.1226 0.236664 -1.54304e-12)
(20.7398 0.23164 -1.19092e-12)
(20.355 0.22586 -4.81684e-13)
(19.9695 0.219466 -1.77367e-13)
(19.5844 0.212594 -4.44341e-13)
(19.2011 0.20537 -4.78021e-13)
(18.8207 0.1979 -6.97864e-13)
(18.4442 0.190278 -1.0093e-12)
(18.0726 0.182594 -1.67367e-13)
(17.7066 0.174927 6.16908e-14)
(17.3469 0.167337 4.4876e-12)
(16.9941 0.159876 4.16536e-12)
(16.6487 0.152591 2.98232e-12)
(16.3109 0.14551 -3.04696e-12)
(15.981 0.138652 -2.54724e-12)
(15.6592 0.13203 -2.65167e-12)
(15.3456 0.125654 -3.38539e-12)
(15.0403 0.119529 -1.43784e-12)
(14.7432 0.113653 -1.58751e-12)
(14.4544 0.108028 -3.44812e-13)
(14.1738 0.102652 4.73978e-12)
(13.9014 0.0975232 2.98087e-12)
(13.6369 0.0926337 3.0521e-12)
(13.3802 0.0879761 1.05871e-12)
(13.1313 0.0835433 1.95508e-13)
(12.8899 0.0793276 1.49889e-12)
(12.6559 0.0753196 1.55567e-12)
(12.4291 0.07151 1.36293e-12)
(12.2094 0.0678905 7.0926e-13)
(11.9964 0.0644546 -8.8438e-12)
(11.7902 0.0611929 -7.30748e-12)
(11.5904 0.0580964 1.45617e-12)
(11.3969 0.055157 1.41485e-12)
(11.2095 0.0523673 1.93158e-12)
(11.0281 0.0497212 2.57964e-12)
(10.8524 0.0472105 4.19456e-12)
(10.6823 0.0448275 3.4492e-12)
(10.5177 0.0425658 2.58363e-12)
(10.3583 0.0404194 1.07312e-13)
(10.2039 0.0383828 1.39919e-12)
(10.0545 0.0364502 9.43677e-12)
(9.90994 0.0346154 4.77794e-12)
(9.76997 0.0328731 6.00898e-14)
(9.63451 0.0312183 2.12971e-12)
(9.50341 0.0296464 1.36895e-12)
(9.37655 0.0281533 6.83287e-13)
(9.25378 0.0267345 -8.94452e-12)
(9.13501 0.0253852 -3.30358e-12)
(9.0201 0.0241016 -1.94933e-11)
(8.90897 0.0228799 -8.20517e-12)
(8.80149 0.0217169 -3.25722e-12)
(8.69758 0.0206095 -4.09214e-13)
(8.59714 0.0195549 -8.09703e-12)
(8.50007 0.0185502 -2.91091e-12)
(8.4063 0.0175925 -2.50107e-12)
(8.31573 0.0166787 -1.55134e-11)
(8.2283 0.0158063 -6.37871e-12)
(8.14394 0.0149726 -1.40904e-12)
(8.06258 0.014175 -7.13904e-13)
(7.98417 0.013411 -3.10798e-12)
(7.90866 0.0126786 1.0575e-13)
(7.836 0.0119758 -1.56199e-12)
(7.76615 0.0113016 3.48585e-12)
(7.69907 0.0106554 7.21024e-13)
(7.63471 0.0100375 -3.77411e-13)
(7.57301 0.00944915 -3.41482e-12)
(7.5139 0.00889173 -2.16883e-12)
(7.45727 0.0083675 -1.237e-12)
(7.40301 0.00787906 8.07881e-12)
(7.35096 0.00742903 -5.33943e-12)
(7.30095 0.00701964 -1.28941e-12)
(7.25277 0.00665272 -9.33037e-12)
(7.20618 0.00632858 1.52005e-11)
(7.16095 0.00604843 5.0271e-12)
(7.11679 0.00580465 3.65244e-12)
(7.07357 0.00560286 1.85562e-12)
(7.03084 0.00539257 8.86421e-13)
(6.98935 0.00525444 -4.65728e-12)
(6.94708 0.00483195 -8.26996e-13)
(6.91145 0.00488362 3.80967e-12)
(6.8655 0.00281024 -5.93979e-12)
(29.5277 0.026491 -6.33117e-17)
(29.5053 0.0424335 -1.19988e-15)
(29.469 0.0473208 -3.98453e-15)
(29.4278 0.0487773 -2.95848e-14)
(29.3866 0.0499041 -1.06906e-12)
(29.3452 0.0503205 -1.00421e-12)
(29.3029 0.0501265 -7.92206e-13)
(29.2595 0.0499477 -7.22081e-13)
(29.2145 0.0500574 -7.89281e-13)
(29.1672 0.0503724 -8.59657e-13)
(29.117 0.0508606 -8.97615e-13)
(29.0629 0.0516196 -9.155e-13)
(29.004 0.0527521 -9.20027e-13)
(28.939 0.0543343 -8.74555e-13)
(28.8666 0.0564464 1.36738e-12)
(28.7851 0.059207 1.19707e-12)
(28.693 0.0627143 6.44936e-13)
(28.5887 0.0670143 4.03736e-13)
(28.4705 0.0721603 3.31974e-13)
(28.3372 0.0782066 3.28054e-13)
(28.1879 0.0851712 6.77466e-13)
(28.0221 0.0930259 8.35658e-13)
(27.8398 0.101711 4.9669e-13)
(27.6416 0.111138 -7.97503e-14)
(27.4286 0.121135 -2.93813e-13)
(27.2022 0.131523 8.44088e-14)
(26.9642 0.142134 3.69381e-13)
(26.7165 0.152802 5.69213e-13)
(26.4609 0.163375 7.44972e-13)
(26.1989 0.173753 8.71598e-13)
(25.9322 0.183821 1.00037e-12)
(25.6618 0.193487 1.96418e-12)
(25.3887 0.202702 2.15821e-12)
(25.1138 0.211438 2.05302e-12)
(24.8376 0.219671 1.46612e-12)
(24.5603 0.227416 3.42948e-12)
(24.282 0.234653 3.18648e-12)
(24.0027 0.241363 2.70031e-12)
(23.7222 0.247532 2.1811e-12)
(23.4401 0.253126 1.55257e-13)
(23.1558 0.258098 -1.22148e-13)
(22.8686 0.262376 -2.10685e-12)
(22.5778 0.265856 -1.23896e-12)
(22.2826 0.26843 -1.45219e-12)
(21.9824 0.269999 -3.41952e-12)
(21.6765 0.270496 -1.13598e-12)
(21.3647 0.26987 -2.29632e-12)
(21.0468 0.268109 -2.15808e-12)
(20.7231 0.265246 -2.00155e-12)
(20.3939 0.261355 -1.53477e-12)
(20.06 0.256539 -1.15619e-12)
(19.7223 0.250904 -6.83079e-13)
(19.3817 0.244568 -3.74473e-13)
(19.0393 0.237657 -4.12185e-13)
(18.6963 0.230292 -1.40363e-12)
(18.3536 0.22258 -1.37071e-12)
(18.0123 0.214622 -1.61421e-12)
(17.6735 0.206518 -1.03947e-12)
(17.3379 0.198357 -4.39966e-13)
(17.0064 0.190211 5.0474e-12)
(16.6797 0.182144 3.86841e-12)
(16.3582 0.174213 2.8576e-12)
(16.0425 0.166458 -2.92995e-12)
(15.733 0.158905 -2.1217e-12)
(15.4299 0.151575 -2.93093e-12)
(15.1335 0.144486 -2.81277e-12)
(14.8439 0.137647 -3.14766e-14)
(14.5614 0.131062 -1.51736e-12)
(14.286 0.124736 -6.61364e-13)
(14.0177 0.118671 3.77279e-12)
(13.7565 0.112869 3.0834e-12)
(13.5024 0.107322 2.93661e-12)
(13.2554 0.102025 1.60549e-12)
(13.0153 0.0969732 8.22378e-13)
(12.782 0.0921584 2.34401e-12)
(12.5555 0.087572 1.9321e-12)
(12.3356 0.0832049 1.60451e-12)
(12.1223 0.0790489 8.91594e-13)
(11.9152 0.0750976 -8.56258e-12)
(11.7144 0.0713414 -7.71245e-12)
(11.5197 0.0677706 -9.43258e-14)
(11.3308 0.0643768 1.41952e-12)
(11.1478 0.0611522 2.53828e-12)
(10.9704 0.0580902 2.51206e-12)
(10.7984 0.055182 3.5894e-12)
(10.6317 0.0524191 3.16268e-12)
(10.4702 0.0497946 2.77229e-12)
(10.3138 0.0473017 5.24555e-13)
(10.1622 0.0449345 1.88654e-12)
(10.0154 0.0426865 9.66404e-12)
(9.87315 0.0405509 4.90554e-12)
(9.7354 0.0385215 1.05217e-12)
(9.602 0.0365929 1.8529e-12)
(9.47282 0.0347599 1.34517e-12)
(9.34775 0.0330178 7.91127e-13)
(9.22666 0.0313615 -9.75694e-12)
(9.10945 0.0297856 -2.9934e-12)
(8.99601 0.0282856 -1.97919e-11)
(8.88623 0.0268574 -9.50962e-12)
(8.78004 0.0254972 -4.54129e-12)
(8.67732 0.0242014 -1.72863e-12)
(8.578 0.022967 -8.18818e-12)
(8.48198 0.0217906 -3.68358e-12)
(8.38919 0.0206687 -2.90457e-12)
(8.29955 0.0195979 -1.69678e-11)
(8.21298 0.0185752 -6.45775e-12)
(8.12944 0.0175976 -5.68162e-13)
(8.04885 0.0166621 -7.26134e-13)
(7.97116 0.0157657 -2.53412e-12)
(7.89632 0.0149061 -3.95403e-13)
(7.82431 0.0140811 2.10073e-13)
(7.75506 0.0132894 5.08578e-12)
(7.68856 0.0125305 8.14561e-13)
(7.62474 0.0118049 -5.07445e-13)
(7.56354 0.0111138 -4.28261e-12)
(7.5049 0.010459 -2.47167e-12)
(7.44872 0.00984318 -1.42822e-12)
(7.39488 0.00926946 7.98322e-12)
(7.34322 0.0087409 -5.29351e-12)
(7.29358 0.00826014 -1.15283e-12)
(7.24573 0.00782933 -8.07266e-12)
(7.19946 0.00744885 1.58826e-11)
(7.15453 0.00712011 4.47976e-12)
(7.11065 0.00683415 4.08919e-12)