/*--------------------------------*- C++ -*----------------------------------*\
| =========                 |                                                 |
| \\      /  F ield         | OpenFOAM: The Open Source CFD Toolbox           |
|  \\    /   O peration     | Version:  1.7.x                                 |
|   \\  /    A nd           | Web:      www.OpenFOAM.com                      |
|    \\/     M anipulation  |                                                 |
\*---------------------------------------------------------------------------*/
FoamFile
{
    version     2.0;
    format      ascii;
    class       volVectorField;
    location    "1750";
    object      U;
}
// * * * * * * * * * * * * * * * * * * * * * * * * * * * * * * * * * * * * * //

dimensions      [0 1 -1 0 0 0 0];

internalField   nonuniform List<vector> 
11750
(
(0.0254432 -2.45828e-11 6.86605)
(0.0218398 -3.19125e-11 7.62295)
(0.0282755 -2.20055e-11 7.92943)
(0.0244006 -1.02258e-11 8.01659)
(0.0190781 -7.75975e-11 8.03568)
(0.0141111 -1.17509e-11 8.03904)
(0.0096208 -6.16341e-12 8.03949)
(0.00553072 -3.56077e-11 8.03951)
(0.00163583 3.08695e-11 8.0395)
(-0.00209649 -1.62604e-11 8.03951)
(-0.00561851 4.07039e-11 8.03957)
(-0.00899351 2.28154e-11 8.03967)
(-0.0122399 4.19027e-11 8.03981)
(-0.015377 9.71257e-12 8.03998)
(-0.0184225 1.5907e-11 8.0402)
(-0.0213921 -2.53311e-11 8.04044)
(-0.0242885 -5.81516e-12 8.0407)
(-0.0271215 -2.80319e-11 8.0409)
(-0.0299547 -1.61447e-12 8.0408)
(-0.0327888 1.37042e-11 8.03931)
(-0.0355637 3.96154e-11 8.03199)
(-0.0381899 -2.06458e-11 8.00262)
(-0.0381989 5.22258e-11 7.89636)
(-0.02686 3.83397e-12 7.56662)
(-0.0274987 1.10495e-12 6.77988)
(0.0117427 -2.05459e-11 6.2141)
(0.0114893 -4.31005e-11 7.32246)
(0.0164758 -2.13934e-11 7.91678)
(0.0148607 -1.51287e-11 8.14344)
(0.0120047 -6.29317e-11 8.19987)
(0.00911326 -1.36768e-11 8.21023)
(0.00631336 7.64209e-12 8.21178)
(0.0037162 3.76256e-11 8.21201)
(0.00121593 3.72996e-11 8.21205)
(-0.00122626 5.47784e-11 8.2121)
(-0.0035474 4.16814e-11 8.2122)
(-0.00577943 3.08341e-11 8.21237)
(-0.00792862 3.46385e-11 8.2126)
(-0.010006 1.67278e-11 8.21289)
(-0.0120188 8.6571e-12 8.21322)
(-0.0139661 2.38065e-11 8.21359)
(-0.0158342 1.60365e-11 8.21392)
(-0.0176237 -3.81673e-12 8.21409)
(-0.0193567 6.7426e-12 8.21342)
(-0.0209651 4.90839e-11 8.20879)
(-0.0223057 4.74473e-11 8.18755)
(-0.0231836 2.3668e-11 8.10385)
(-0.0219425 2.29539e-11 7.83476)
(-0.0141257 7.18923e-12 7.20289)
(-0.0126515 3.14249e-12 6.05633)
(0.00518562 -2.81905e-12 5.84094)
(0.00803305 4.82488e-12 7.05295)
(0.0121051 3.92457e-11 7.79413)
(0.0124088 -7.38826e-13 8.17691)
(0.0107061 -4.98478e-11 8.3045)
(0.00822442 -1.34556e-11 8.33073)
(0.005661 1.16503e-11 8.33479)
(0.00330138 2.90128e-11 8.33541)
(0.00108095 3.86037e-11 8.33555)
(-0.00108084 5.64795e-11 8.33563)
(-0.00314116 8.30136e-11 8.33573)
(-0.00512022 4.74771e-11 8.33588)
(-0.00702295 5.62851e-11 8.33608)
(-0.00886036 3.1949e-11 8.33632)
(-0.0106389 3.57824e-11 8.33659)
(-0.0123576 2.42208e-11 8.33686)
(-0.014014 1.65186e-11 8.33703)
(-0.0156289 1.73186e-11 8.33679)
(-0.0172173 1.36919e-11 8.33452)
(-0.0186694 3.69753e-11 8.32262)
(-0.0195717 7.76029e-11 8.27052)
(-0.0190071 2.60676e-11 8.08888)
(-0.015951 5.05465e-11 7.65152)
(-0.00986272 1.77545e-11 6.87975)
(-0.0056486 8.23473e-12 5.63974)
(0.00224108 9.36473e-12 5.63929)
(0.00510319 2.03628e-11 6.86411)
(0.00822919 4.16539e-11 7.64035)
(0.00991731 -5.90081e-13 8.12986)
(0.00948519 -8.55023e-11 8.35593)
(0.00750194 -1.89492e-11 8.41482)
(0.00514645 1.29359e-11 8.42428)
(0.00295189 2.74366e-11 8.42562)
(0.000920399 3.82681e-11 8.42589)
(-0.00104395 5.26099e-11 8.426)
(-0.00292166 6.56535e-11 8.42612)
(-0.00472483 5.18751e-11 8.42627)
(-0.00645708 5.30787e-11 8.42646)
(-0.008129 3.93346e-11 8.42669)
(-0.00974619 3.64908e-11 8.42693)
(-0.0113081 2.56097e-11 8.42713)
(-0.0128217 1.7502e-11 8.42716)
(-0.0143132 1.65109e-11 8.4263)
(-0.0157627 1.92622e-11 8.42087)
(-0.0169494 4.53242e-11 8.3932)
(-0.0170371 6.23415e-11 8.28145)
(-0.0149475 3.83984e-11 7.98206)
(-0.010949 3.93762e-11 7.44694)
(-0.00637431 2.23654e-11 6.65211)
(-0.00255996 1.27374e-11 5.41351)
(0.000980599 1.8955e-11 5.53896)
(0.00300944 3.38342e-11 6.74929)
(0.00527397 6.21772e-11 7.51474)
(0.00748091 7.38064e-12 8.04724)
(0.00818598 -7.33734e-11 8.36378)
(0.00694631 -2.0026e-11 8.47736)
(0.00484864 3.99075e-11 8.49852)
(0.00278503 3.09484e-11 8.50134)
(0.000879086 6.2729e-11 8.50181)
(-0.000950647 4.79868e-11 8.50197)
(-0.00270834 3.51304e-11 8.5021)
(-0.00439863 4.84987e-11 8.50226)
(-0.00602233 5.06945e-11 8.50244)
(-0.00758921 3.90243e-11 8.50265)
(-0.009103 3.14704e-11 8.50286)
(-0.010562 2.71615e-11 8.503)
(-0.0119816 3.92031e-11 8.50278)
(-0.0133783 1.90729e-11 8.50074)
(-0.0146659 2.65659e-11 8.48841)
(-0.0153493 8.26222e-11 8.42811)
(-0.0143127 6.0531e-11 8.23289)
(-0.0112342 4.32862e-11 7.84781)
(-0.0073236 3.69948e-11 7.28348)
(-0.00395644 2.90776e-11 6.50799)
(-0.00125196 3.31004e-11 5.2962)
(0.000430563 -3.15157e-11 5.49071)
(0.00172342 2.04842e-11 6.6819)
(0.0033195 5.32748e-11 7.42614)
(0.00538453 -2.08642e-11 7.96453)
(0.0067909 -5.14669e-11 8.33704)
(0.00638421 -2.27541e-11 8.51723)
(0.00463071 1.51792e-11 8.56101)
(0.00266681 1.19733e-12 8.5669)
(0.000840413 4.55056e-11 8.56773)
(-0.000895701 3.85792e-11 8.56796)
(-0.00256933 3.62759e-11 8.56811)
(-0.00418288 3.02328e-11 8.56826)
(-0.00573283 6.39137e-11 8.56844)
(-0.0072279 2.62978e-11 8.56864)
(-0.00866928 4.01776e-11 8.56881)
(-0.0100568 2.4155e-11 8.56885)
(-0.0114142 3.23052e-11 8.56823)
(-0.0127333 3.48233e-12 8.56369)
(-0.013785 3.04705e-11 8.53657)
(-0.0137041 4.93421e-11 8.42306)
(-0.0116718 6.43926e-11 8.15125)
(-0.00834457 3.44321e-11 7.72712)
(-0.00501606 3.26231e-11 7.16581)
(-0.0025138 1.45443e-11 6.41733)
(-0.000682206 3.99838e-12 5.23385)
(0.000170757 -9.10987e-12 5.46747)
(0.000969739 1.44738e-11 6.64193)
(0.00209997 1.95866e-11 7.36595)
(0.00377768 -9.98016e-12 7.89665)
(0.00541713 -4.14701e-11 8.29302)
(0.00574412 -6.43814e-11 8.53235)
(0.00445044 1.20581e-11 8.61127)
(0.00258325 1.10222e-11 8.62344)
(0.000806857 3.83441e-11 8.62493)
(-0.000866597 2.57015e-11 8.62525)
(-0.00247827 4.21229e-11 8.62542)
(-0.00403778 3.60675e-11 8.62557)
(-0.00553595 5.4191e-11 8.62575)
(-0.00698007 3.57148e-11 8.62592)
(-0.00836858 3.75532e-11 8.62605)
(-0.00970846 1.58071e-11 8.62595)
(-0.0110248 2.81594e-11 8.62457)
(-0.0122603 1.62131e-11 8.61475)
(-0.0129134 3.41939e-11 8.56019)
(-0.0119763 5.29869e-11 8.38481)
(-0.00937948 5.2769e-11 8.06485)
(-0.0062924 3.98194e-11 7.63068)
(-0.00358773 3.43638e-11 7.08235)
(-0.00168004 2.08316e-11 6.35817)
(-0.000407373 1.08151e-11 5.19808)
(3.52337e-05 1.30058e-11 5.45667)
(0.000518942 2.52476e-11 6.61811)
(0.00132685 1.96341e-11 7.3255)
(0.00262541 -7.45063e-12 7.84533)
(0.00417431 -3.51835e-11 8.24739)
(0.00501788 -5.5496e-11 8.52693)
(0.00425289 3.42108e-11 8.64852)
(0.00252835 1.6937e-11 8.67214)
(0.000786208 6.20053e-11 8.67485)
(-0.000846416 2.52018e-12 8.67531)
(-0.00241026 3.11326e-11 8.6755)
(-0.0039302 1.33791e-11 8.67567)
(-0.0053909 4.1401e-11 8.67583)
(-0.00679715 3.06506e-11 8.67599)
(-0.00814584 3.26856e-11 8.67606)
(-0.00945477 3.142e-12 8.67575)
(-0.0107387 4.90075e-11 8.67287)
(-0.0118316 1.95249e-11 8.65254)
(-0.0119175 4.15468e-11 8.55823)
(-0.0102648 5.28409e-11 8.33065)
(-0.00754822 4.69864e-11 7.98844)
(-0.00486519 2.81236e-11 7.55655)
(-0.00267183 2.65966e-11 7.02265)
(-0.00118003 1.80249e-11 6.31816)
(-0.000257885 1.06573e-11 5.17605)
(-4.16697e-05 4.26851e-11 5.45245)
(0.000237384 1.22045e-11 6.60416)
(0.00081558 4.02867e-12 7.29845)
(0.00181579 -1.11896e-11 7.80773)
(0.00313762 -3.15581e-11 8.20783)
(0.00424715 -4.5498e-11 8.50927)
(0.00399516 6.2174e-12 8.67249)
(0.00248885 1.89795e-11 8.71379)
(0.000775021 5.14719e-11 8.71874)
(-0.000829816 1.1754e-11 8.71942)
(-0.00235592 5.00569e-11 8.71965)
(-0.00384478 2.45104e-11 8.71982)
(-0.00527688 5.88122e-11 8.71997)
(-0.00665277 2.50297e-11 8.72011)
(-0.00797139 4.19182e-11 8.72012)
(-0.0092587 1.84836e-11 8.71943)
(-0.0105065 4.47746e-11 8.71364)
(-0.0113462 2.35474e-11 8.67534)
(-0.0108036 4.89775e-11 8.5367)
(-0.00871373 5.22183e-11 8.27506)
(-0.00615366 5.64129e-11 7.92543)
(-0.00385808 3.89277e-11 7.50008)
(-0.00205605 3.86822e-11 6.97934)
(-0.00086345 1.65634e-11 6.29036)
(-0.000168954 -6.50287e-12 5.16185)
(-8.95009e-05 -2.65582e-11 5.45181)
(5.21309e-05 -1.11173e-11 6.59631)
(0.000463054 -1.59695e-11 7.28044)
(0.00123983 -3.90791e-11 7.78045)
(0.00232474 -4.18806e-11 8.17606)
(0.00349076 -5.64954e-11 8.48713)
(0.00367024 8.56928e-13 8.68433)
(0.00244835 1.90034e-11 8.74867)
(0.000769254 4.40756e-11 8.75745)
(-0.000815238 1.93373e-11 8.75848)
(-0.00231238 6.35934e-11 8.75876)
(-0.00377533 3.56196e-11 8.75893)
(-0.00518458 6.62225e-11 8.75908)
(-0.00653491 3.50833e-11 8.75919)
(-0.00783169 6.35545e-11 8.7591)
(-0.00910222 2.07504e-11 8.75777)
(-0.0102903 4.21803e-11 8.74665)
(-0.0107631 2.79365e-11 8.68291)
(-0.00965721 4.69092e-11 8.50487)
(-0.00741258 5.29018e-11 8.22489)
(-0.00510456 6.12061e-11 7.87468)
(-0.00312959 4.63236e-11 7.45684)
(-0.00162462 4.70926e-11 6.94738)
(-0.000652299 2.34969e-11 6.27057)
(-0.000112439 5.25649e-12 5.15236)
(-0.000120583 3.92683e-11 5.45322)
(-7.57652e-05 -6.36271e-12 6.59221)
(0.000209652 -1.58784e-11 7.2685)
(0.00081837 -2.85048e-11 7.7607)
(0.00170609 -6.8473e-11 8.15127)
(0.00279853 -5.44736e-11 8.46537)
(0.00329518 -2.20522e-12 8.68668)
(0.00239051 3.98374e-11 8.77682)
(0.000767714 4.02151e-11 8.7916)
(-0.000801677 2.45181e-11 8.79318)
(-0.00227745 5.56087e-11 8.79351)
(-0.00371798 5.49822e-11 8.79369)
(-0.00510824 6.71759e-11 8.79384)
(-0.00643694 6.14035e-11 8.79391)
(-0.00771815 6.03015e-11 8.79369)
(-0.00897456 2.31602e-11 8.79124)
(-0.0100533 4.17683e-11 8.77133)
(-0.0100925 4.92703e-11 8.67772)
(-0.00856996 4.7481e-11 8.47043)
(-0.0063674 5.20365e-11 8.18191)
(-0.00430625 5.33846e-11 7.834)
(-0.0025882 4.72834e-11 7.4234)
(-0.0013111 4.41222e-11 6.92336)
(-0.000504431 4.1352e-11 6.25617)
(-7.43895e-05 1.61519e-11 5.14584)
(-0.00014016 1.38725e-11 5.45567)
(-0.000166626 -5.69714e-12 6.5906)
(2.10436e-05 -1.779e-11 7.26062)
(0.000500566 -2.89886e-11 7.74639)
(0.0012356 -5.53081e-11 8.1321)
(0.00219934 -4.81677e-11 8.44617)
(0.00289413 -4.44045e-12 8.68281)
(0.00230431 4.38445e-11 8.79846)
(0.00076983 3.74108e-11 8.82165)
(-0.000789043 2.81426e-11 8.82405)
(-0.00224903 5.58263e-11 8.82446)
(-0.00366995 5.71601e-11 8.82465)
(-0.00504378 6.41895e-11 8.82479)
(-0.00635468 5.51465e-11 8.82483)
(-0.00762408 5.8476e-11 8.82439)
(-0.00886576 2.56369e-11 8.8201)
(-0.00976996 4.1908e-11 8.78743)
(-0.00937214 4.38327e-11 8.66398)
(-0.00760378 4.78926e-11 8.43765)
(-0.00553736 5.08308e-11 8.1458)
(-0.00368693 5.07881e-11 7.80127)
(-0.00217547 4.65272e-11 7.39723)
(-0.00107587 4.21314e-11 6.90501)
(-0.00039633 3.62214e-11 6.24549)
(-4.74789e-05 2.06916e-11 5.14128)
(-0.000152781 1.90212e-11 5.45865)
(-0.000232787 -1.1182e-12 6.59057)
(-0.000123397 -1.76847e-11 7.25556)
(0.000253359 -3.02828e-11 7.73602)
(0.000871264 -4.52142e-11 8.11732)
(0.00170013 -2.88767e-11 8.43006)
(0.00248949 -4.64812e-12 8.67563)
(0.00218669 3.79675e-11 8.81413)
(0.00077333 3.55294e-11 8.84794)
(-0.000778289 3.08461e-11 8.85156)
(-0.00222588 5.59404e-11 8.85208)
(-0.00362989 5.90036e-11 8.85228)
(-0.00498895 6.34446e-11 8.85241)
(-0.00628583 5.71275e-11 8.8524)
(-0.00754537 5.75427e-11 8.85166)
(-0.00876457 2.81336e-11 8.84443)
(-0.00943417 4.23615e-11 8.79551)
(-0.00864662 4.51269e-11 8.6459)
(-0.00678226 4.81357e-11 8.40823)
(-0.00487364 4.98343e-11 8.11565)
(-0.00319775 4.91089e-11 7.77479)
(-0.001854 4.56514e-11 7.37649)
(-0.000894703 4.1086e-11 6.89078)
(-0.000314528 3.47176e-11 6.23746)
(-2.77116e-05 2.30959e-11 5.13807)
(-0.000161444 3.09128e-11 5.46184)
(-0.000282866 2.06232e-11 6.59153)
(-0.00023747 -1.34189e-11 7.2525)
(5.56183e-05 -2.86894e-11 7.72848)
(0.000581524 -4.09842e-11 8.10591)
(0.00129199 -4.85799e-11 8.41685)
(0.00209842 -2.13435e-11 8.66722)
(0.0020405 4.54033e-11 8.82468)
(0.000773668 1.89229e-11 8.87077)
(-0.000771174 3.2641e-11 8.87609)
(-0.00220816 5.61857e-11 8.87676)
(-0.00359801 6.06443e-11 8.87698)
(-0.00494344 6.38379e-11 8.87709)
(-0.00622961 5.90341e-11 8.87703)
(-0.00748072 5.71234e-11 8.87583)
(-0.0086601 2.9872e-11 8.8643)
(-0.00905608 4.02462e-11 8.79691)
(-0.0079557 5.24915e-11 8.62657)
(-0.00610022 4.24706e-11 8.38251)
(-0.00433657 5.49845e-11 8.09047)
(-0.00280602 4.9419e-11 7.7532)
(-0.00159951 4.5354e-11 7.35989)
(-0.000752476 4.07198e-11 6.87961)
(-0.000251084 3.45018e-11 6.23133)
(-1.2819e-05 2.46617e-11 5.1358)
(-0.000168349 1.99213e-11 5.4651)
(-0.000323535 7.57063e-12 6.59311)
(-0.000330778 -1.70287e-11 7.25085)
(-0.000107657 -4.47431e-11 7.72302)
(0.000342185 -4.30492e-11 8.0971)
(0.000956699 -4.31385e-11 8.40612)
(0.00173025 -1.31015e-12 8.65885)
(0.00186926 3.4991e-11 8.83115)
(0.000763244 4.10999e-11 8.89039)
(-0.000771769 2.20756e-11 8.898)
(-0.00219921 4.56274e-11 8.89884)
(-0.00357755 6.19524e-11 8.89907)
(-0.00491025 6.47066e-11 8.89917)
(-0.00618802 6.05736e-11 8.89904)
(-0.00743226 4.61044e-11 8.89719)
(-0.00854649 1.98657e-11 8.87984)
(-0.00865532 3.7662e-11 8.79339)
(-0.00732883 4.94997e-11 8.60778)
(-0.00553997 4.5424e-11 8.36025)
(-0.00389875 5.06254e-11 8.06939)
(-0.00249023 4.65807e-11 7.73544)
(-0.00139645 4.20508e-11 7.34645)
(-0.000639895 3.82457e-11 6.87072)
(-0.000201424 3.32466e-11 6.22661)
(-1.5703e-06 2.42471e-11 5.13419)
(-0.000175849 8.99735e-12 5.46833)
(-0.000361654 -4.99157e-12 6.59506)
(-0.000414596 -3.97664e-11 7.25018)
(-0.00025312 -4.41507e-11 7.71915)
(0.000130528 -5.10852e-11 8.09029)
(0.000669294 -4.50592e-11 8.39743)
(0.00138253 -2.55053e-12 8.65117)
(0.00167034 3.47363e-11 8.83459)
(0.000728223 4.29521e-11 8.90709)
(-0.0007909 3.90897e-11 8.91755)
(-0.00220983 4.27402e-11 8.91862)
(-0.00357884 7.40017e-11 8.91887)
(-0.00489959 5.99729e-11 8.91896)
(-0.0061699 7.42638e-11 8.91872)
(-0.00740834 3.97317e-11 8.91596)
(-0.00842866 2.93556e-11 8.89132)
(-0.00825818 4.4416e-11 8.7867)
(-0.00678677 4.79298e-11 8.59041)
(-0.00508558 4.51574e-11 8.34105)
(-0.00354481 4.01296e-11 8.05165)
(-0.00223846 4.06541e-11 7.72073)
(-0.00123668 4.43125e-11 7.33546)
(-0.000552541 3.35742e-11 6.86357)
(-0.000163675 4.03985e-11 6.22293)
(6.39651e-06 2.41778e-11 5.13306)
(-0.000187957 8.799e-13 5.47154)
(-0.000407803 -1.16273e-11 6.59729)
(-0.000506314 -3.48407e-11 7.25025)
(-0.000403545 -4.21912e-11 7.71653)
(-8.25657e-05 -4.74882e-11 8.08504)
(0.000393323 -3.90322e-11 8.39043)
(0.00103411 -3.40093e-12 8.64443)
(0.00142526 3.34317e-11 8.83594)
(0.000640435 4.3582e-11 8.92117)
(-0.000855358 3.75975e-11 8.93503)
(-0.00226705 4.77923e-11 8.93636)
(-0.00362799 6.88867e-11 8.93663)
(-0.00493725 6.18917e-11 8.9367)
(-0.00619947 7.31187e-11 8.93634)
(-0.00743114 4.05363e-11 8.93236)
(-0.00832971 3.22793e-11 8.89917)
(-0.00790109 4.3738e-11 8.77826)
(-0.00635013 4.69047e-11 8.57471)
(-0.00473372 4.48338e-11 8.32449)
(-0.00327333 4.23643e-11 8.03663)
(-0.00204997 4.01121e-11 7.70842)
(-0.00112064 4.17367e-11 7.32636)
(-0.000491815 3.71437e-11 6.85774)
(-0.00013922 3.62772e-11 6.22)
(1.03227e-05 2.43079e-11 5.13223)
(-0.000212618 -5.07313e-12 5.47483)
(-0.000481743 -1.74646e-11 6.59981)
(-0.000637155 -4.00842e-11 7.25095)
(-0.000599451 -2.96356e-11 7.71495)
(-0.000347428 -4.07317e-11 8.08113)
(6.71724e-05 -3.40993e-11 8.38486)
(0.000630995 -3.79484e-12 8.63875)
(0.00108375 3.16569e-11 8.836)
(0.000441036 4.356e-11 8.93298)
(-0.00102479 3.71655e-11 8.95067)
(-0.00243052 4.77062e-11 8.95232)
(-0.00378334 6.84473e-11 8.9526)
(-0.00508062 5.14192e-11 8.95263)
(-0.00633208 7.18613e-11 8.9521)
(-0.00755182 4.12316e-11 8.94655)
(-0.00830331 3.432e-11 8.90395)
(-0.00764196 4.34989e-11 8.76909)
(-0.00605479 4.75155e-11 8.56066)
(-0.00450503 5.27807e-11 8.31013)
(-0.00310356 4.22061e-11 8.02379)
(-0.00194101 3.54607e-11 7.69798)
(-0.00106192 3.70836e-11 7.3187)
(-0.000468218 3.09552e-11 6.85286)
(-0.000134633 3.24069e-11 6.21758)
(7.58038e-06 2.41982e-11 5.13158)
(-0.000265289 -6.32048e-12 5.47844)
(-0.000621117 -1.36598e-11 6.60278)
(-0.000865505 -2.08173e-11 7.25237)
(-0.00091719 -1.48298e-11 7.71438)
(-0.000754612 -2.6198e-11 8.07852)
(-0.000417236 -2.27798e-11 8.38061)
(5.84965e-05 -3.56563e-12 8.63416)
(0.000533127 2.98156e-11 8.83545)
(1.17992e-05 4.32598e-11 8.94293)
(-0.00141897 3.7503e-11 8.96474)
(-0.00281979 5.38586e-11 8.96673)
(-0.00416257 6.85197e-11 8.967)
(-0.0054453 6.44117e-11 8.96697)
(-0.0066801 7.12418e-11 8.96623)
(-0.00787572 4.3855e-11 8.95868)
(-0.00845498 3.61166e-11 8.9062)
(-0.00758093 4.35094e-11 8.7598)
(-0.00597466 4.73908e-11 8.54808)
(-0.0044603 4.95092e-11 8.29755)
(-0.00308857 4.31621e-11 8.01265)
(-0.00195579 3.76512e-11 7.68897)
(-0.00109587 3.73779e-11 7.31208)
(-0.000507613 3.47646e-11 6.84862)
(-0.000165403 3.15781e-11 6.21541)
(-7.73413e-06 2.42723e-11 5.13091)
(-0.000374548 -7.35606e-12 5.48284)
(-0.000894888 -8.08433e-12 6.6066)
(-0.00129731 -2.00763e-11 7.25479)
(-0.00149426 -1.80285e-11 7.71501)
(-0.0014663 -2.55869e-11 8.07731)
(-0.00124501 -2.52109e-11 8.37786)
(-0.000887332 -5.52136e-12 8.63083)
(-0.000438662 2.70476e-11 8.83483)
(-0.000865471 3.42737e-11 8.95146)
(-0.00225905 3.83835e-11 8.97752)
(-0.00365564 5.80156e-11 8.97986)
(-0.00498372 6.88427e-11 8.98007)
(-0.00624517 6.38737e-11 8.97994)
(-0.00745171 7.08876e-11 8.97888)
(-0.00859971 5.06119e-11 8.96892)
(-0.008975 3.73844e-11 8.90644)
(-0.00789202 4.19547e-11 8.75068)
(-0.00625249 4.6452e-11 8.53668)
(-0.00472446 4.7726e-11 8.28633)
(-0.00333598 4.34544e-11 8.00274)
(-0.00218368 4.05906e-11 7.68091)
(-0.00129313 3.75048e-11 7.30608)
(-0.000661026 3.42677e-11 6.84464)
(-0.000261742 3.11947e-11 6.21319)
(-4.6965e-05 2.44482e-11 5.12999)
(-0.000589357 -8.40587e-12 5.48888)
(-0.0014208 -2.05309e-11 6.61201)
(-0.00211268 -2.00266e-11 7.25883)
(-0.00256334 -2.76356e-11 7.71736)
(-0.00275873 -2.50873e-11 8.07789)
(-0.00272665 -2.35202e-11 8.37693)
(-0.00254385 -1.75011e-11 8.62915)
(-0.0021875 2.4142e-11 8.83478)
(-0.00256106 2.83385e-11 8.95909)
(-0.00392227 3.9545e-11 8.98936)
(-0.00531444 5.89466e-11 8.99201)
(-0.00661868 7.64493e-11 8.99208)
(-0.00784475 6.42332e-11 8.99175)
(-0.00900124 7.60625e-11 8.99024)
(-0.0100599 5.48594e-11 8.97737)
(-0.0101818 3.82055e-11 8.90504)
(-0.00886403 3.4211e-11 8.74176)
(-0.00713757 4.52019e-11 8.52609)
(-0.00551777 4.32325e-11 8.27597)
(-0.00403494 4.33124e-11 7.99353)
(-0.00278166 4.06377e-11 7.67328)
(-0.00177744 3.78181e-11 7.3002)
(-0.00101751 3.53394e-11 6.84046)
(-0.000476221 3.29959e-11 6.21048)
(-0.000129724 2.55901e-11 5.12843)
(-0.000987515 -3.07292e-11 5.49784)
(-0.00238578 -1.95887e-11 6.62015)
(-0.00359684 -2.42795e-11 7.26549)
(-0.00449142 -3.45308e-11 7.72227)
(-0.00506707 -2.75199e-11 8.08102)
(-0.00535355 -3.12824e-11 8.37845)
(-0.00544555 -1.57656e-11 8.62967)
(-0.00527639 1.31622e-11 8.83605)
(-0.00565964 3.3481e-11 8.96648)
(-0.0070031 3.29963e-11 9.00071)
(-0.00838843 5.92306e-11 9.00353)
(-0.00965238 6.85675e-11 9.00331)
(-0.0108166 6.43547e-11 9.00263)
(-0.011884 6.54964e-11 9.00045)
(-0.0127828 5.41982e-11 8.98411)
(-0.0125687 3.84935e-11 8.90221)
(-0.0109445 3.65482e-11 8.73283)
(-0.00902494 4.05843e-11 8.51583)
(-0.00718928 4.42445e-11 8.2659)
(-0.00548514 3.82442e-11 7.9844)
(-0.00399838 3.90435e-11 7.66546)
(-0.00274459 3.33745e-11 7.29381)
(-0.00171796 3.44269e-11 6.83545)
(-0.00089197 2.98885e-11 6.20666)
(-0.000286868 2.55106e-11 5.12567)
(-0.00168546 -4.219e-11 5.51163)
(-0.00406955 -1.58834e-11 6.63274)
(-0.00617574 -2.63185e-11 7.27628)
(-0.00782446 -4.27171e-11 7.73107)
(-0.00903641 -2.93059e-11 8.08784)
(-0.00985195 -2.8648e-11 8.38344)
(-0.0103826 -1.42381e-11 8.63331)
(-0.0105386 1.23877e-11 8.83955)
(-0.0110218 3.26515e-11 8.97447)
(-0.012372 3.61011e-11 9.01212)
(-0.0137424 5.93413e-11 9.01487)
(-0.0149368 6.18837e-11 9.01412)
(-0.0159923 6.4353e-11 9.01285)
(-0.0169031 6.28648e-11 9.00963)
(-0.0175279 5.34104e-11 8.98915)
(-0.0168426 3.78112e-11 8.89798)
(-0.0147747 3.76547e-11 8.72353)
(-0.0124861 4.29521e-11 8.5053)
(-0.0102433 4.35488e-11 8.25542)
(-0.00811955 4.36451e-11 7.9746)
(-0.0061931 3.92714e-11 7.65666)
(-0.00447746 3.49596e-11 7.28611)
(-0.0029661 3.37146e-11 6.8288)
(-0.00162919 2.51105e-11 6.20091)
(-0.000562793 2.49765e-11 5.12094)
(-0.00285042 -4.17249e-11 5.53289)
(-0.00687332 -2.27287e-11 6.65214)
(-0.0104585 -3.99529e-11 7.29328)
(-0.0133391 -3.87755e-11 7.74561)
(-0.015579 -3.01923e-11 8.09996)
(-0.0172419 -2.67154e-11 8.3933)
(-0.0184576 -1.28754e-11 8.64126)
(-0.0191306 1.19643e-11 8.84643)
(-0.0198328 3.20353e-11 8.98404)
(-0.0212187 3.83001e-11 9.02426)
(-0.022551 5.92177e-11 9.02653)
(-0.0236222 5.63929e-11 9.02489)
(-0.0244878 6.40925e-11 9.02264)
(-0.0251291 5.95642e-11 9.01786)
(-0.0253012 5.25604e-11 8.9924)
(-0.0239344 3.77077e-11 8.89218)
(-0.0211993 3.82165e-11 8.71328)
(-0.0182759 4.22126e-11 8.49377)
(-0.0153453 4.36263e-11 8.24368)
(-0.0125097 4.75397e-11 7.96323)
(-0.00984038 4.01656e-11 7.64592)
(-0.00735008 3.59755e-11 7.27609)
(-0.00503171 3.30732e-11 6.81946)
(-0.00284706 2.17459e-11 6.19212)
(-0.00101593 2.42642e-11 5.11318)
(-0.00472078 -3.05108e-11 5.56509)
(-0.0113669 -2.65041e-11 6.68146)
(-0.0173049 -3.85986e-11 7.31923)
(-0.02212 -4.42102e-11 7.76826)
(-0.025954 -3.60291e-11 8.11947)
(-0.0289119 -2.57338e-11 8.40982)
(-0.0311484 -1.16449e-11 8.65505)
(-0.0325796 1.18728e-11 8.85799)
(-0.0336329 3.16974e-11 8.99628)
(-0.0350656 4.0071e-11 9.03785)
(-0.0362966 5.90593e-11 9.03904)
(-0.0371413 5.31212e-11 9.03596)
(-0.0376765 6.37092e-11 9.0322)
(-0.0378634 5.55772e-11 9.02513)
(-0.0373142 5.16928e-11 8.99364)
(-0.034958 3.78936e-11 8.88446)
(-0.0312275 3.85452e-11 8.7014)
(-0.0272989 4.17227e-11 8.48035)
(-0.0232939 4.34328e-11 8.22971)
(-0.0193444 4.57875e-11 7.94921)
(-0.0155147 4.0541e-11 7.63211)
(-0.0118174 3.65552e-11 7.26256)
(-0.00824446 3.28732e-11 6.80617)
(-0.00474029 2.43477e-11 6.17899)
(-0.00171718 2.66793e-11 5.10113)
(-0.00765345 -4.48019e-11 5.61277)
(-0.0183953 -2.93659e-11 6.72467)
(-0.027972 -3.80498e-11 7.35758)
(-0.0357214 -4.26657e-11 7.802)
(-0.041921 -3.51879e-11 8.14886)
(-0.0467475 -2.47181e-11 8.43506)
(-0.0504003 -1.0432e-11 8.67634)
(-0.0528314 1.21039e-11 8.87555)
(-0.0543209 3.16697e-11 9.01219)
(-0.0557301 4.16814e-11 9.05351)
(-0.0566983 5.90287e-11 9.05276)
(-0.0571121 5.41567e-11 9.04756)
(-0.0570723 6.34017e-11 9.04158)
(-0.0565087 5.55093e-11 9.03123)
(-0.0548529 5.08739e-11 8.9925)
(-0.0510885 3.82055e-11 8.8743)
(-0.0459267 3.87757e-11 8.6871)
(-0.0405203 4.14168e-11 8.46414)
(-0.0349541 4.31676e-11 8.21249)
(-0.0293841 4.46226e-11 7.93144)
(-0.0238649 4.06335e-11 7.61402)
(-0.0184046 3.68333e-11 7.24423)
(-0.0129922 3.277e-11 6.78753)
(-0.00753984 2.54174e-11 6.16004)
(-0.0027498 2.40666e-11 5.08334)
(-0.0122479 -4.03623e-11 5.68199)
(-0.0293572 -2.36559e-11 6.78701)
(-0.0444854 -3.79283e-11 7.41266)
(-0.0565502 -4.67578e-11 7.85032)
(-0.06608 -3.46619e-11 8.19089)
(-0.0733895 -2.36483e-11 8.47107)
(-0.0787829 -8.92347e-12 8.70657)
(-0.0823018 1.65938e-11 8.90003)
(-0.0841071 3.20544e-11 9.03232)
(-0.0851971 4.32689e-11 9.0714)
(-0.0855227 5.91177e-11 9.06769)
(-0.0851021 5.5322e-11 9.05956)
(-0.0840661 6.31316e-11 9.05053)
(-0.0822937 5.5465e-11 9.03573)
(-0.0790125 5.00898e-11 8.98848)
(-0.0733221 3.85649e-11 8.86114)
(-0.0662199 3.92492e-11 8.66965)
(-0.0588115 4.39238e-11 8.44433)
(-0.0511558 4.32823e-11 8.19112)
(-0.0434157 4.40848e-11 7.90893)
(-0.0356202 4.06612e-11 7.59056)
(-0.0277537 3.69117e-11 7.21984)
(-0.0197851 3.26788e-11 6.76211)
(-0.0115631 2.62074e-11 6.13362)
(-0.00422982 2.42027e-11 5.05817)
(-0.0196699 -3.76206e-11 5.78191)
(-0.0469081 -2.7453e-11 6.87599)
(-0.0705633 -4.43163e-11 7.49015)
(-0.0887477 -4.48813e-11 7.91721)
(-0.102573 -3.38672e-11 8.24808)
(-0.112695 -2.28358e-11 8.51925)
(-0.119706 -8.51028e-12 8.74622)
(-0.123872 1.58062e-11 8.93126)
(-0.125332 2.95663e-11 9.05611)
(-0.125309 4.37647e-11 9.09074)
(-0.124189 5.56662e-11 9.08299)
(-0.122183 5.64169e-11 9.07114)
(-0.119455 6.02655e-11 9.05826)
(-0.115807 5.51567e-11 9.03791)
(-0.110258 4.8209e-11 8.98103)
(-0.102086 3.56975e-11 8.84456)
(-0.0925612 3.71476e-11 8.64867)
(-0.0827098 4.2973e-11 8.42058)
(-0.0725605 4.26184e-11 8.16529)
(-0.062245 4.34117e-11 7.8813)
(-0.0517232 3.77671e-11 7.56116)
(-0.0408907 3.37901e-11 7.18851)
(-0.0296101 2.95305e-11 6.72861)
(-0.017548 2.64488e-11 6.09796)
(-0.00644249 2.42845e-11 5.02376)
(-0.0326628 -3.59802e-11 5.92471)
(-0.077547 -3.03139e-11 7.00321)
(-0.114397 -4.32018e-11 7.59709)
(-0.140373 -4.31085e-11 8.00617)
(-0.158461 -3.28512e-11 8.32135)
(-0.170384 -2.17248e-11 8.57876)
(-0.177501 -9.14202e-12 8.79338)
(-0.180582 1.17289e-11 8.96672)
(-0.179927 3.30751e-11 9.081)
(-0.177106 4.33737e-11 9.10911)
(-0.173062 5.65558e-11 9.09655)
(-0.168223 5.3722e-11 9.08053)
(-0.162757 6.19332e-11 9.06335)
(-0.15635 5.15837e-11 9.03667)
(-0.147818 4.54957e-11 8.9696)
(-0.136662 3.61102e-11 8.82445)
(-0.124398 3.82426e-11 8.62431)
(-0.11194 3.95297e-11 8.39336)
(-0.0992812 4.12681e-11 8.13568)
(-0.0864844 4.27699e-11 7.84931)
(-0.0733862 3.80791e-11 7.52645)
(-0.059678 3.42064e-11 7.15036)
(-0.0448645 2.9648e-11 6.68596)
(-0.0276771 2.37337e-11 6.0499)
(-0.010698 2.41294e-11 4.97269)
(-0.0768182 -3.502e-11 6.1903)
(-0.130951 -3.24805e-11 7.19922)
(-0.194154 -4.22755e-11 7.74289)
(-0.226368 -4.13219e-11 8.11645)
(-0.244796 -3.12589e-11 8.40535)
(-0.253833 -1.67102e-11 8.64252)
(-0.256535 -9.55676e-12 8.84074)
(-0.254464 1.27744e-11 8.99967)
(-0.248197 3.17395e-11 9.10135)
(-0.239699 4.53077e-11 9.12209)
(-0.230501 5.70599e-11 9.10497)
(-0.221143 5.48186e-11 9.08528)
(-0.211666 6.10872e-11 9.06415)
(-0.201543 5.19179e-11 9.03124)
(-0.189336 4.50437e-11 8.95444)
(-0.174802 3.62552e-11 8.80186)
(-0.159697 3.62932e-11 8.59837)
(-0.144836 3.91592e-11 8.36525)
(-0.130232 3.90098e-11 8.10574)
(-0.11596 4.20172e-11 7.81742)
(-0.101887 3.81146e-11 7.49206)
(-0.0877765 3.42387e-11 7.11235)
(-0.0730061 2.97852e-11 6.64228)
(-0.0586457 2.5003e-11 5.99807)
(-0.0160122 2.41228e-11 4.92988)
(0.158018 3.32943e-12 -1.75265)
(0.390305 8.58407e-12 -1.73107)
(0.608916 1.11164e-11 -1.689)
(0.827871 1.10883e-11 -1.62865)
(1.03354 2.2572e-11 -1.5506)
(1.21826 1.12052e-11 -1.45424)
(1.3756 9.36631e-12 -1.33891)
(1.49882 8.77834e-12 -1.20464)
(1.58028 1.50663e-11 -1.05302)
(1.61141 1.16964e-11 -0.887844)
(1.58499 9.90779e-12 -0.713669)
(1.48685 8.62096e-12 -0.515203)
(1.26318 5.95658e-12 -0.165214)
(0.871263 -4.27477e-12 0.688836)
(-0.013176 -1.24861e-11 3.13449)
(0.0529663 7.84119e-12 -2.54276)
(0.137146 1.7926e-11 -2.51147)
(0.220308 2.01806e-11 -2.44089)
(0.299471 1.02312e-11 -2.33432)
(0.367818 1.47176e-11 -2.18928)
(0.4213 2.89607e-12 -2.00181)
(0.455197 -2.48694e-12 -1.76683)
(0.463397 -1.45129e-12 -1.47825)
(0.437934 -4.97975e-12 -1.12749)
(0.369833 -1.02374e-11 -0.696187)
(0.242414 -6.25413e-12 -0.130194)
(0.034995 -4.52157e-12 0.67394)
(-0.227597 -2.47426e-12 1.71916)
(-0.532457 -1.1295e-11 2.967)
(-0.812508 -2.61006e-11 4.59221)
(-0.0012712 3.71794e-11 -2.95694)
(-0.00544997 4.44112e-11 -2.91515)
(-0.0139954 5.49713e-11 -2.82075)
(-0.0287507 6.38543e-11 -2.67409)
(-0.0525417 6.9198e-11 -2.46938)
(-0.0890254 5.00886e-11 -2.19785)
(-0.142211 3.33252e-11 -1.84707)
(-0.216102 1.92955e-11 -1.39933)
(-0.314811 9.31072e-12 -0.829576)
(-0.447169 3.06091e-12 -0.106805)
(-0.604034 -4.20404e-12 0.748888)
(-0.756991 -1.09413e-11 1.68289)
(-0.906993 -1.77274e-11 2.73372)
(-1.04339 -2.47556e-11 3.92917)
(-1.13639 -3.23578e-11 5.26411)
(-0.0429755 1.69668e-11 -2.52811)
(-0.110549 4.65194e-11 -2.47197)
(-0.180318 7.10288e-11 -2.34679)
(-0.258358 8.65422e-11 -2.1526)
(-0.343896 8.85864e-11 -1.88326)
(-0.438543 6.46514e-11 -1.53052)
(-0.543932 4.07592e-11 -1.08505)
(-0.659557 1.87075e-11 -0.537274)
(-0.781964 2.47395e-12 0.122877)
(-0.895016 -8.23326e-12 0.846841)
(-0.991896 -1.48019e-11 1.62754)
(-1.07694 -1.95886e-11 2.49807)
(-1.14788 -2.29326e-11 3.46781)
(-1.19848 -2.42946e-11 4.5239)
(-1.21242 -3.6794e-11 5.61314)
(-0.0620313 2.01288e-11 -1.74105)
(-0.158908 5.6343e-11 -1.67639)
(-0.256837 9.22459e-11 -1.53473)
(-0.362354 1.1941e-10 -1.31758)
(-0.472099 1.19954e-10 -1.02092)
(-0.584191 1.02968e-10 -0.637883)
(-0.694364 9.37951e-11 -0.159933)
(-0.797095 6.46696e-11 0.389949)
(-0.885758 3.39437e-11 0.977613)
(-0.961686 5.49576e-12 1.62648)
(-1.02683 -1.54877e-11 2.35133)
(-1.08093 -1.33313e-11 3.1551)
(-1.12056 -2.2092e-11 4.02999)
(-1.14051 -2.07252e-11 4.94964)
(-1.13116 -3.11488e-11 5.85328)
(-0.0706807 1.04555e-11 -0.781584)
(-0.179809 2.87541e-11 -0.710787)
(-0.286281 4.43771e-11 -0.556153)
(-0.394592 5.53933e-11 -0.318222)
(-0.498311 6.03033e-11 -0.00786167)
(-0.594815 5.91483e-11 0.358362)
(-0.68104 4.08054e-11 0.763062)
(-0.755623 2.41639e-11 1.21748)
(-0.820362 8.57854e-12 1.73696)
(-0.877195 -5.70997e-12 2.3267)
(-0.925488 -1.65349e-11 2.98726)
(-0.963365 -2.13111e-11 3.71405)
(-0.988199 -2.56126e-11 4.4932)
(-0.9967 -2.88915e-11 5.29411)
(-0.983491 -3.35268e-11 6.05931)
(-0.0631362 2.52261e-13 0.290766)
(-0.16017 4.63386e-14 0.348226)
(-0.252383 -2.01191e-12 0.467755)
(-0.342834 -6.39582e-12 0.637909)
(-0.425632 -8.40754e-12 0.862408)
(-0.499865 3.76369e-12 1.14733)
(-0.566872 7.28554e-12 1.49472)
(-0.62814 3.15784e-12 1.90538)
(-0.683608 -4.35557e-12 2.3803)
(-0.7323 -1.26118e-11 2.91983)
(-0.772856 -1.97512e-11 3.52186)
(-0.803698 -2.4881e-11 4.17943)
(-0.823123 -2.88889e-11 4.87677)
(-0.829312 -3.23073e-11 5.58317)
(-0.819541 -3.57122e-11 6.24703)
(-0.0466367 6.14838e-11 1.04914)
(-0.118568 1.86463e-11 1.09504)
(-0.187473 1.04979e-11 1.19435)
(-0.257046 4.56372e-12 1.34543)
(-0.324143 1.15235e-12 1.54952)
(-0.387814 7.46518e-13 1.80854)
(-0.447181 -7.5256e-13 2.12432)
(-0.501545 -4.19738e-12 2.49846)
(-0.550162 -8.90273e-12 2.93194)
(-0.592173 -1.33361e-11 3.42437)
(-0.626611 -1.82895e-11 3.97277)
(-0.652443 -3.46738e-11 4.56944)
(-0.668674 -3.2345e-11 5.19841)
(-0.674423 -3.45112e-11 5.83038)
(-0.668514 -3.65811e-11 6.41927)
(-0.0367291 2.39666e-12 1.66466)
(-0.0935133 4.79152e-12 1.70602)
(-0.148374 4.04882e-12 1.79609)