/*--------------------------------*- C++ -*----------------------------------*\
| =========                 |                                                 |
| \\      /  F ield         | OpenFOAM: The Open Source CFD Toolbox           |
|  \\    /   O peration     | Version:  1.7.x                                 |
|   \\  /    A nd           | Web:      www.OpenFOAM.com                      |
|    \\/     M anipulation  |                                                 |
\*---------------------------------------------------------------------------*/
FoamFile
{
    version     2.0;
    format      ascii;
    class       volScalarField;
    location    "1750";
    object      epsilon;
}
// * * * * * * * * * * * * * * * * * * * * * * * * * * * * * * * * * * * * * //

dimensions      [0 2 -3 0 0 0 0];

internalField   nonuniform List<scalar> 
11750
(
373.841
36.2533
3.1654
0.301523
0.041219
0.00789835
0.00288166
0.00199725
0.00180675
0.00176066
0.0017486
0.00174499
0.00174461
0.00174877
0.00176599
0.00182542
0.0020262
0.00273913
0.00557254
0.0181572
0.080237
0.48793
4.12054
39.9745
382.309
446.847
64.4716
7.69236
0.724845
0.0827823
0.0146421
0.00423078
0.00232756
0.00189398
0.00177958
0.00174828
0.00173993
0.00174088
0.00175394
0.00179897
0.00193862
0.00237319
0.00383643
0.00942787
0.033476
0.165069
1.21949
10.1912
71.2788
444.109
417.522
89.559
17.376
2.13709
0.206686
0.0279529
0.00628441
0.00276559
0.00200739
0.00180462
0.00174704
0.00173199
0.00173514
0.00176091
0.00184249
0.00208247
0.00281776
0.00538345
0.0161015
0.0719637
0.488494
3.87625
23.6118
99.6742
406.836
392.421
108.047
30.8547
5.75538
0.629859
0.0640434
0.0103533
0.00343176
0.00216002
0.00184006
0.00174907
0.00172543
0.00173148
0.00177329
0.00190037
0.0022724
0.00347609
0.00828784
0.0332856
0.209628
1.67432
10.4293
41.0055
119.807
379.063
380.878
119.507
43.1458
11.7392
1.78456
0.171481
0.0199955
0.00462599
0.00238439
0.00189107
0.00175657
0.00172214
0.00173168
0.00179326
0.00197964
0.00255076
0.00465406
0.0151075
0.0855932
0.681257
4.69601
19.91
55.4917
131.403
366.61
377.068
126.093
51.9442
18.4215
4.00877
0.462835
0.043911
0.0069784
0.00273833
0.00196466
0.00177068
0.0017225
0.00173623
0.00182298
0.00209349
0.00300706
0.00707909
0.0328305
0.245725
1.91777
9.6216
29.0599
65.1363
137.391
361.976
376.553
129.831
57.6749
24.188
7.08661
1.09211
0.10142
0.011787
0.00332206
0.00207137
0.00179283
0.00172677
0.0017457
0.00186611
0.00226526
0.00381829
0.0124246
0.0793448
0.667315
4.19998
15.1945
36.1567
71.0331
140.319
360.404
377.265
132.01
61.3376
28.5601
10.387
2.14478
0.227805
0.0216088
0.00430406
0.00222616
0.0018249
0.00173529
0.00176099
0.0019282
0.0025335
0.00532573
0.0243991
0.194647
1.53246
7.26288
20.2123
41.1786
74.5697
141.702
359.922
378.385
133.35
63.7132
31.7251
13.3792
3.55353
0.466706
0.0409421
0.00595261
0.00244905
0.00186907
0.00174848
0.00178327
0.00201699
0.00295973
0.00816679
0.0505555
0.444168
2.90355
10.5137
24.2417
44.6359
76.7143
142.33
359.83
379.599
134.236
65.3021
34.0037
15.8517
5.13743
0.848527
0.0767757
0.00868446
0.00276665
0.00192774
0.00176678
0.00181395
0.00214286
0.00364116
0.0134981
0.104649
0.894733
4.64888
13.4956
27.3305
47.0218
78.0488
142.599
359.891
380.787
134.866
66.4064
35.6635
17.8149
6.70799
1.37285
0.138089
0.0131197
0.00321339
0.00200346
0.00179057
0.00185465
0.00231938
0.00472675
0.0232843
0.207039
1.5742
6.53348
16.0284
29.6678
48.6954
78.9071
142.702
360.019
381.906
135.335
67.2042
36.8958
19.3581
8.14083
2.00826
0.233488
0.0201067
0.00383167
0.0020988
0.00182021
0.00190709
0.00256399
0.00643633
0.0405689
0.37975
2.45128
8.3542
18.1076
31.4416
49.8954
79.4798
142.732
360.18
382.947
135.706
67.8002
37.8299
20.5756
9.38475
2.7064
0.368196
0.0306887
0.00467097
0.00221626
0.00185591
0.00197308
0.00289866
0.00908293
0.0695739
0.637922
3.45145
9.99865
19.7939
32.8014
50.7766
79.8767
142.733
360.361
383.909
136.021
68.2558
38.5537
21.545
10.4377
3.41848
0.542298
0.0459939
0.00578624
0.00235814
0.00189778
0.00205442
0.00335021
0.0130888
0.115292
0.983357
4.4906
11.4311
21.16
33.8581
51.4391
80.1623
142.726
360.552
384.796
136.298
68.6141
39.1246
22.3247
11.3205
4.10618
0.750901
0.0670521
0.0072353
0.00252642
0.00194574
0.00215287
0.00394993
0.0189839
0.182451
1.40389
5.50123
12.6579
22.2709
34.6909
51.9483
80.3751
142.72
360.747
385.615
136.547
68.904
39.5808
22.9588
12.0598
4.74507
0.985656
0.0945752
0.00907632
0.00272258
0.00199959
0.00227012
0.00473305
0.0273818
0.274283
1.87791
6.4417
13.702
23.1806
35.3568
52.3479
80.5392
142.718
360.941
386.374
136.771
69.1433
39.9486
23.4797
12.6808
5.32297
1.23666
0.12877
0.0113607
0.00294745
0.00205901
0.00240783
0.00573862
0.0389348
0.391732
2.38071
7.29324
14.5898
23.9316
35.8967
52.6677
80.6699
142.721
361.128
387.084
136.972
69.3415
40.2476
23.9087
13.2047
5.83638
1.49405
0.169224
0.0141242
0.00320089
0.00212358
0.00256794
0.00701103
0.0542806
0.533396
2.88985
8.05255
15.3467
24.5575
36.3408
52.9289
80.7777
142.729
361.301
387.765
137.147
69.5021
40.4898
24.2607
13.6472
6.28751
1.74889
0.214841
0.0173762
0.00348149
0.00219293
0.00275333
0.00860555
0.0740082
0.69614
3.38821
8.72518
15.9953
25.0849
36.712
53.1474
80.8707
142.741
361.451
388.448
137.286
69.6229
40.6802
24.5465
14.0165
6.67929
1.99489
0.264717
0.0211048
0.00378654
0.00226687
0.00296941
0.010602
0.0986843
0.876097
3.86504
9.32114
16.5561
25.5361
37.029
53.3367
80.9564
142.758
361.559
389.181
137.377
69.6945
40.8174
24.7705
14.319
7.01285
2.22585
0.317696
0.0252677
0.00411181
0.00234576
0.00322707
0.0131323
0.128969
1.06975
4.31569
9.85267
17.0477
25.93
37.3085
53.5094
81.0432
142.782
361.602
390.036
137.395
69.7
40.893
24.9313
14.5566
7.28898
2.43559
0.371793
0.0297737
0.00445113
0.00243104
0.00354828
0.016427
0.165821
1.27489
4.74081
10.3334
17.488
26.2848
37.5663
53.6788
81.1419
142.814
361.539
391.113
137.306
69.6129
40.8918
25.021
14.7266
7.50613
2.61814
0.424677
0.034475
0.00479606
0.00252646
0.00397619
0.0208896
0.210769
1.49125
5.1454
10.7778
17.8947
26.6182
37.8191
53.8602
81.2663
142.863
361.317
392.542
137.062
69.3969
40.7911
25.0264
14.8213
7.66002
2.76732
0.473716
0.0391648
0.00513618
0.00264034
0.00459385
0.0272023
0.266179
1.72086
5.53787
11.2018
18.286
26.9487
38.0848
54.0715
81.4337
142.935
360.866
394.481
136.599
69.0038
40.5602
24.9283
14.8294
7.74385
2.87675
0.516078
0.0435844
0.00546031
0.00279061
0.00555843
0.0364669
0.335466
1.96799
5.92905
11.6214
18.6801
27.2952
38.3829
54.3329
81.665
143.042
360.102
397.109
135.83
68.3714
40.1596
24.7018
14.7353
7.7489
2.94016
0.548955
0.0474452
0.00575946
0.00301517
0.00716025
0.0503679
0.423144
2.23863
6.3311
12.0533
19.0956
27.6773
38.7343
54.6675
81.9854
143.2
358.933
400.614
134.623
67.4128
39.5365
24.3144
14.5204
7.66542
2.95216
0.569909
0.0504681
0.00603254
0.00339184
0.00991188
0.0713104
0.534586
2.53958
6.75606
12.5127
19.5503
28.1154
39.163
55.1047
82.43
143.437
357.261
405.174
132.751
65.9898
38.6131
23.7234
14.1625
7.48413
2.90944
0.577335
0.0524386
0.00629561
0.00407183
0.0146503
0.102413
0.675296
2.87675
7.21372
13.0124
20.06
28.6304
39.6993
55.6908
83.0691
143.833
354.988
410.773
129.838
63.8596
37.2707
22.8736
13.639
7.1994
2.81254
0.570958
0.0532641
0.0065951
0.00532166
0.0225854
0.147159
0.849471
3.25267
7.70837
13.5584
20.6345
29.2416
40.3837
56.5147
84.1022
144.837
351.904
418.248
123.384
60.3176
35.2813
21.6909
12.9318
6.81342
2.66736
0.552159
0.0530185
0.00702596
0.00755263
0.0351993
0.208632
1.05834
3.66454
8.23651
14.1459
21.2687
29.9462
41.2271
57.639
85.7631
147.065
349.358
414.736
412.522
409.136
404.418
398.125
390.058
380.004
367.713
352.802
334.228
308.887
274.554
240.05
203.226
169.091
261.768
263.926
268.087
273.972
281.224
289.69
299.428
311.033
326.922
356.112
423.202
535.649
602.635
558.614
410.896
283.768
289.477
301.855
320.519
345.615
377.966
419.557
473.467
540.712
609.236
647.588
648.574
615.712
522.392
360.149
342.824
352.596
373.385
404.338
444.441
491.982
543.306
590.92
621.205
628.821
620.984
592.563
529.565
421.187
276.766
383.901
394.712
416.906
448.34
485.485
522.87
551.777
566.972
572.691
569.97
551.753
509.347
435.657
330.901
211.552
387.021
395.307
410.97
429.904
448.234
464.342
479.586
493.473
501.392
497.315
474.962
428.79
356.43
263.21
166.481
314.039
319.3
330.097
346.414
366.81
388.992
410.163
426.936
435.19
430.205
407.158
362.43
296.084
215.313
136.091
254.849
260.521
272.266
289.118
309.496
331.331
351.989
368.231
376.195
371.599
350.34
309.789
251.025
181.491
115.312
215.057
220.148
230.743
245.902
264.307
284.19
303.185
318.308
326.011
322.426
303.949
268.449
217.234
157.224
100.757
184.877
189.346
198.695
212.09
228.426
246.185
263.301
277.133
284.526
282.035
266.462
235.92
191.563
139.456
90.3269
161.205
165.114
173.326
185.116
199.552
215.333
230.672
243.267
250.351
248.883
236.012
209.988
171.659
126.136
82.7018
142.14
145.572
152.806
163.212
175.998
190.045
203.81
215.293
222.083
221.507
211.021
188.971
155.87
115.894
77.0288
126.497
129.528
135.935
145.167
156.545
169.103
181.504
192.012
198.524
198.697
190.258
171.638
143.047
107.813
72.7398
113.47
116.165
121.875
130.115
140.299
151.586
162.812
172.468
178.718
179.501
172.79
157.101
132.397
101.265
69.4417
102.488
104.901
110.022
117.423
126.591
136.792
147.008
155.919
161.915
163.186
157.919
144.721
123.365
95.815
66.8531
93.1335
95.3072
99.9283
106.616
114.918
124.187
133.529
141.784
147.537
149.189
145.121
134.032
115.56
91.1584
64.7676
85.0923
87.0627
91.2572
97.3341
104.893
113.359
121.941
129.615
135.131
137.076
133.998
124.692
108.705
87.0814
63.0313
78.1255
79.9217
83.7494
89.3004
96.2164
103.985
111.902
119.057
124.345
126.507
124.245
116.447
102.601
83.4333
61.5299
72.0471
73.6928
77.203
82.2977
88.6544
95.813
103.143
109.834
114.899
117.218
115.627
109.101
97.1028
80.1078
60.1792
66.7104
68.2251
71.4582
76.1542
82.0207
88.6422
95.452
101.722
106.572
108.999
107.956
102.507
92.1027
77.0304
58.9187
61.9983
63.398
66.3877
70.7326
76.1663
82.3116
88.656
94.5442
99.1851
101.68
101.087
96.5475
87.5202
74.1489
57.7062
57.8158
59.114
61.8881
65.9217
70.9707
76.6909
82.6167
88.1557
92.5949
95.1259
94.8991
91.1304
83.2936
71.4267
56.5137
54.0855
55.2932
57.8752
61.6309
66.3356
71.6738
77.2211
82.4392
86.6837
89.2252
89.2963
86.181
79.3746
68.8381
55.3237
50.7434
51.8701
54.2796
57.7857
62.1803
67.1733
72.376
77.2982
81.3551
83.8869
84.1991
81.6383
75.7251
66.3654
54.1264
47.7364
48.79
51.0438
54.324
58.4378
63.117
68.0047
72.6527
76.529
79.0352
79.5417
77.4521
72.3141
63.9955
52.9172
45.0199
46.0072
48.1196
51.1944
55.0523
59.4448
64.0431
68.4363
72.139
74.6072
75.2692
73.5803
69.1162
61.7192
51.6952
42.5565
43.4832
45.4663
48.3535
51.9771
56.1064
60.4377
64.5933
68.1293
70.55
71.3352
69.9875
66.11
59.5295
50.4618
40.3141
41.1853
43.0498
45.7645
49.1726
53.0593
57.1433
61.0769
64.4529
66.8188
67.7006
66.6434
63.2775
57.421
49.2196
38.2658
39.0857
40.8408
43.3964
46.6054
50.2676
54.1219
57.8473
61.0699
63.3756
64.3319
63.5224
60.6033
55.3895
47.9722
36.3881
37.1607
38.8145
41.2226
44.247
47.7007
51.341
54.8709
57.9465
60.1882
61.2006
60.6022
58.074
53.4311
46.7233
34.6612
35.3897
36.9493
39.2203
42.0732
45.3326
48.7729
52.119
55.0537
57.2288
58.2819
57.8636
55.6777
51.5428
45.4766
33.0677
33.7551
35.227
37.3702
40.0628
43.1409
46.3939
49.5668
52.3667
54.4734
55.5547
55.2898
53.4043
49.7217
44.2356
31.5927
32.2418
33.6315
35.6552
38.1981
41.1063
44.1836
47.1931
49.864
51.9014
53.0004
52.8662
51.2444
47.9653
43.0039
30.2233
30.8363
32.1492
34.0609
36.4633
39.2123
42.1244
44.9795
47.5269
49.4949
50.6029
50.5798
49.1901
46.2709
41.7841
28.9481
29.5273
30.7679
32.5744
34.845
37.4443
40.2009
42.9101
45.3395
47.2383
48.3481
48.4194
47.2339
44.6365
40.5791
27.7573
28.3048
29.4773
31.1849
33.3314
35.7898
38.4
40.9711
43.2877
45.1179
46.2236
46.3749
45.3694
43.0598
39.3911
26.6422
27.1598
28.2683
29.8826
31.9123
34.238
36.7099
39.1503
41.3591
43.1217
44.2185
44.4374
43.5906
41.5386
38.2221
25.5954
26.0847
27.1328
28.6592
30.5787
32.7792
35.1206
37.4371
39.5429
41.2393
42.3232
42.5989
41.8921
40.0712
37.0736
24.6102
25.0728
26.0638
27.5073
29.3227
31.4051
33.6231
35.8222
37.8296
39.4612
40.5291
40.8523
40.2692
38.6554
35.947
23.6808
24.1182
25.0553
26.4203
28.1375
30.1082
32.2096
34.2974
36.2109
37.7792
38.8286
39.1913
38.7174
37.2897
34.8436
22.802
23.2155
24.1016
25.3925
27.0169
28.8821
30.8731
32.8554
34.6793
36.1861
37.2148
37.6101
37.2327
35.9722
33.7642
21.9692
22.3602
23.1981
24.4188
25.9555
27.7209
29.6075
31.4897
33.228
34.6752
35.6817
36.1037
35.8115
34.7013
32.7096
21.1786
21.5482
22.3404
23.4948
24.9484
26.6195
28.4073
30.1945
31.8513
33.2406
34.2238
34.6673
34.4504
33.4755
31.6803
20.4264
20.7758
21.5248
22.6165
23.9915
25.5733
27.2675
28.9646
30.5437
31.8771
32.8361
33.2966
33.1463
32.2932
30.6769
19.7096
20.0399
20.7479
21.7802
23.0809
24.5781
26.1837
27.7954
29.3002
30.5797
31.5139
31.9876
31.8962
31.153
29.6995
19.0253
19.3374
20.0068
20.9828
22.213
23.6302
25.1519
26.6824
28.1165
29.3438
30.2529
30.7365
30.6969
30.0529
28.7477
18.3711
18.666
19.2986
20.2212
21.3848
22.7261
24.168
25.6212
26.9878
28.1647
29.0483
29.5386
29.5447
28.9901
27.8202
17.745
18.0236
18.6214
19.4934
20.5936
21.8628
23.2289
24.6085
25.9102
27.038
27.8954
28.3895
28.4353
27.9609
26.9139
17.1447
17.4078
17.9723
18.7959
19.8354
21.0355
22.3286
23.637
24.8753
25.9542
26.784
27.278
27.3569
26.9534
26.0172
16.5689
16.8175
17.3509
18.1293
19.112
20.2471
21.4713
22.712
23.8895
24.9205
25.7215
26.2117
26.3173
25.9748
25.1358
378.089
111.727
54.2
32.1062
19.9007
11.8912
6.25025
2.44678
0.516607
0.0515451
0.00799761
0.0126192
0.0598031
0.310211
1.35617
4.19801
8.89826
14.8783
22.0656
30.85
42.3572
59.3368
89.4369
161.391
417.179
285.447
95.0291
47.1763
28.5032
17.8526
10.6882
5.5929
2.18231
0.46895
0.0491642
0.0102299
0.0229476
0.102562
0.460293
1.73808
4.82226
9.64538
15.6944
22.9521
31.871
43.7133
61.7295
95.919
186.161
491.11
207.581
79.0562
40.8611
25.1576
15.8781
9.493
4.92701
1.90826
0.41593
0.0467069
0.0150356
0.0420919
0.170881
0.667123
2.20092
5.51948
10.453
16.5658
23.9027
33.0083
45.3978
65.2697
106.356
219.719
536.533
153.619
66.1007
35.7013
22.3094
14.1331
8.4079
4.31376
1.65252
0.364289
0.0453229
0.0240701
0.073555
0.269712
0.930488
2.72827
6.2603
11.2877
17.4596
24.8954
34.2831
47.5711
70.457
121.439
258.403
551.008
118.217
56.1626
31.5706
19.9453
12.6431
7.46627
3.77961
1.42946
0.318496
0.0461028
0.0387475
0.119391
0.399302
1.24095
3.29449
7.01107
12.1154
18.3462
25.9191
35.7431
50.4333
77.7317
141.056
296.565
540.313
94.914
48.6308
28.2583
17.9935
11.3897
6.66921
3.32975
1.24305
0.280556
0.049739
0.0596616
0.179366
0.555024
1.58286
3.87183
7.74156
12.9089
19.2076
26.9824
37.466
54.2005
87.3819
164.213
328.749
514.933
79.2083
42.8969
25.5851
16.3817
10.3436
6.00503
2.95893
1.09153
0.250724
0.0563668
0.0863547
0.25104
0.728939
1.93874
4.43609
8.42968
13.652
20.0409
28.1145
39.5516
59.0774
99.4682
189.155
351.545
483.984
68.2736
38.4717
23.4078
15.0462
9.47344
5.45654
2.65716
0.970434
0.228237
0.065604
0.117494
0.33057
0.911988
2.2928
4.96951
9.0626
14.3397
20.8569
29.3617
42.1127
65.2322
113.773
213.736
364.258
453.069
60.422
35.0046
21.6178
13.9339
8.74962
5.00528
2.41308
0.874516
0.211873
0.0767342
0.151291
0.413737
1.09588
2.63299
5.46147
9.63609
14.9768
21.6784
30.7834
45.2698
72.7787
129.787
235.941
368.306
424.761
54.651
32.2551
20.1349
13.0028
8.14616
4.63406
2.21597
0.798789
0.20032
0.0889267
0.185937
0.496775
1.2742
2.95162
5.90775
10.1528
15.5757
22.5376
32.4515
49.1484
81.7534
146.755
254.335
366.037
399.821
50.3419
30.0561
18.8984
12.2188
7.64099
4.32789
2.05653
0.738976
0.192386
0.101408
0.219898
0.57682
1.44277
3.24496
6.30905
10.6208
16.1555
23.4762
34.4516
53.8741
92.0878
163.773
268.276
359.754
378.161
47.0988
28.2901
17.8623
11.5548
7.21573
4.07419
1.92707
0.691591
0.187082
0.113558
0.252051
0.652023
1.59943
3.51239
6.66961
11.0515
16.7403
24.5457
36.8832
59.5603
103.582
179.939
277.831
351.233
359.388
44.6583
26.8739
16.9917
10.989
6.85533
3.86267
1.82139
0.65388
0.183633
0.124943
0.281704
0.721456
1.74366
3.75551
6.99608
11.4597
17.3604
25.809
39.8596
66.2872
115.902
194.525
283.577
341.544
342.871
42.8374
25.7479
16.2603
10.5045
6.54773
3.68505
1.73458
0.623703
0.181461
0.135305
0.308537
0.78493
1.8761
3.97741
7.29673
11.8628
18.0524
27.3428
43.5026
74.0783
128.631
207.122
286.221
331.114
328.079
41.502
24.8687
15.6488
10.0881
6.28333
3.53473
1.66278
0.599414
0.180148
0.144529
0.332518
0.842787
1.9982
4.18213
7.5812
12.2813
18.8615
29.2386
47.9328
82.8803
141.322
217.537
286.163
320.534
314.862
40.5488
24.2034
15.143
9.72992
6.05461
3.4065
1.60298
0.579749
0.179405
0.152608
0.353821
0.89573
2.11189
4.37439
7.86055
12.7404
19.8438
31.6029
53.2517
92.5464
153.53
225.66
283.89
310.268
303.019
39.8939
23.7264
14.733
9.42243
5.85574
3.29626
1.5528
0.563741
0.179033
0.159608
0.372754
0.944679
2.2194
4.55952
8.14775
13.2709
21.0688
34.5541
59.5293
102.878
164.93
231.137
280.25
300.512
292.35
39.4664
23.4162
14.4114
9.16037
5.68225
3.2008
1.51041
0.550646
0.178903
0.165638
0.389702
0.990687
2.32322
4.74361
8.45859
13.9122
22.6222
38.2148
66.7784
113.582
174.862
234.434
275.786
291.341
282.691
39.2053
23.2531
14.1732
8.94009
5.53084
3.11762
1.47435
0.539892
0.178933
0.170833
0.405091
1.03489
2.42604
4.9339
8.81303
14.7148
24.6049
42.6937
74.917
124.248
182.987
236.046
270.861
282.758
273.889
39.0576
23.2185
14.0148
8.75936
5.39912
3.04484
1.4435
0.53104
0.179073
0.175336
0.419368
1.07847
2.53093
5.13941
9.23718
15.7432
27.1333
48.0806
83.8323
134.198
189.435
236.377
265.71
274.732
265.815
38.9777
23.2933
13.9329
8.61698
5.2855
2.981
1.41699
0.52375
0.179295
0.179293
0.432989
1.12274
2.64158
5.37191
9.7658
17.0791
30.3272
54.3954
93.1092
143.162
194.39
235.744
260.48
267.221
258.366
38.9275
23.4579
13.9246
8.51262
5.18906
2.92509
1.39414
0.517761
0.179589
0.182846
0.446421
1.16912
2.76266
5.64746
10.4454
18.8207
34.2962
61.5837
102.281
151.039
198.057
234.393
255.266
260.179
251.456
38.8761
23.6921
13.9864
8.44653
5.10942
2.87641
1.37445
0.512874
0.179951
0.186132
0.460157
1.21934
2.9005
5.98839
11.3379
21.0818
39.125
69.3599
111.083
157.811
200.635
232.507
250.124
253.561
245.01
38.7998
23.9757
14.114
8.41931
5.04671
2.83453
1.35755
0.508936
0.180385
0.189288
0.474743
1.27559
3.06403
6.42607
12.5219
23.9738
44.8052
77.4323
119.316
163.518
202.3
230.226
245.087
247.322
238.97
38.6814
24.2888
14.3018
8.43167
5.00144
2.79932
1.34318
0.505837
0.180902
0.192451
0.490824
1.34092
3.26634
7.00447
14.0954
27.608
51.1858
85.5606
126.853
168.233
203.206
227.655
240.174
241.426
233.287
38.5094
24.6125
14.543
8.48422
4.97447
2.77084
1.33119
0.503498
0.181516
0.195767
0.509227
1.41972
3.52678
7.78317
16.1647
32.0261
58.0898
93.5288
133.624
172.046
203.482
224.874
235.394
235.837
227.919
38.2775
24.9298
14.8294
8.5772
4.96692
2.74939
1.32153
0.501867
0.182244
0.199407
0.531098
1.51869
3.87409
8.84121
18.8455
37.1789
65.329
101.161
139.606
175.051
203.239
221.942
230.751
230.527
222.831
37.983
25.226
15.1518
8.71025
4.98009
2.73545
1.31421
0.500919
0.183108
0.203584
0.558145
1.6483
4.35017
10.2743
22.2211
42.9689
72.7074
108.327
144.811
177.34
202.566
218.906
226.246
225.469
217.995
37.6265
25.489
15.5001
8.88224
5.01538
2.72971
1.30936
0.500649
0.184138
0.208595
0.593061
1.82507
5.01426
12.1902
26.3161
49.2663
80.0411
114.939
149.271
179.001
201.541
215.801
221.876
220.642
213.387
37.2107
25.7093
15.8637
9.09109
5.07417
2.73302
1.30717
0.501078
0.185373
0.214891
0.640287
2.07514
5.94688
14.7014
31.0917
55.9118
87.1726
120.948
153.031
180.114
200.227
212.655
217.638
216.026
208.986
36.7396
25.8804
16.2321
9.33372
5.15768
2.74641
1.30793
0.50225
0.186871
0.223207
0.707363
2.43879
7.24635
17.8797
36.4733
62.7357
93.9773
126.333
156.145
180.75
198.676
209.49
213.528
211.604
204.775
36.2183
25.9978
16.5953
9.60604
5.26689
2.77104
1.31202
0.504235
0.18872
0.234832
0.807317
2.97655
9.02866
21.7464
42.3437
69.5759
100.364
131.095
158.669
180.974
196.932
206.323
209.543
207.363
200.74
35.6522
26.0596
16.9442
9.90301
5.40235
2.80819
1.31994
0.507131
0.191068
0.252137
0.962643
3.77336
11.4033
26.269
48.5587
76.29
106.271
135.253
160.661
180.843
195.032
203.168
205.678
203.289
196.867
35.0471
26.0655
17.2709
10.2189
5.56408
2.8592
1.33227
0.511076
0.194185
0.279655
1.21124
4.93677
14.4431
31.3724
54.9646
82.7612
111.663
138.837
162.174
180.406
193.009
200.035
201.931
199.372
193.147
34.4085
26.0166
17.5686
10.5473
5.75144
2.92545
1.34973
0.516249
0.198599
0.326283
1.61478
6.59481
18.1635
36.9419
61.4144
88.9001
116.528
141.881
163.261
179.708
190.888
196.935
198.297
195.604
189.571
33.7417
25.9151
17.8323
10.8817
5.96309
3.00824
1.37315
0.522895
0.205413
0.409512
2.26572
8.86413
22.5242
42.8403
67.7779
94.6435
120.868
144.425
163.969
178.788
188.693
193.874
194.773
191.976
186.13
33.0519
25.764
18.0582
11.2156
6.19692
3.10873
1.40348
0.531354
0.21707
0.562773
3.28681
11.8166
27.4412
48.9237
73.9469
99.9506
124.695
146.511
164.343
177.681
186.443
190.859
191.357
188.482
182.819
32.3438
25.5667
18.2438
11.5427
6.4501
3.22785
1.44179
0.542138
0.239181
0.84684
4.82558
15.4544
32.7959
55.0562
79.837
104.8
128.032
148.178
164.423
176.415
184.154
187.894
188.047
185.115
179.632
31.6216
25.3273
18.3879
11.8574
6.71917
3.36616
1.48924
0.556141
0.284707
1.36113
7.01212
19.7183
38.4528
61.1175
85.3861
109.185
130.908
149.467
164.247
175.018
181.842
184.984
184.84
181.871
176.564
30.8894
25.0496
18.4902
12.1548
7.00017
3.52384
1.54709
0.575204
0.382382
2.24561
9.91468
24.5073
44.2738
67.0079
90.5523
113.109
133.351
150.416
163.847
173.512
179.517
182.134
181.734
178.746
173.611
30.1507
24.7377
18.5516
12.4307
7.28883
3.70053
1.61668
0.603731
0.591133
3.67187
13.5108
29.6948
50.1307
72.648
95.3102
116.587
135.394
151.059
163.253
171.918
177.192
179.344
178.728
175.735
170.768
29.4087
24.3958
18.5733
12.682
7.58079
3.89536
1.69948
0.652967
1.01529
5.7838
17.7097
35.1438
55.9114
77.9784
99.6476
119.636
137.069
151.429
162.491
170.253
174.873
176.618
175.818
172.834
168.033
28.6665
24.0277
18.5572
12.9063
7.87181
4.10693
1.79748
0.750655
1.80731
8.64162
22.385
40.7184
61.5221
82.9564
103.562
122.277
138.404
151.554
161.583
168.53
172.569
173.956
173.002
170.038
165.401
27.9266
23.6372
18.5059
13.1024
8.15799
4.33336
1.91476
0.958278
3.15456
12.1878
27.3981
46.2944
66.8869
87.5531
107.058
124.533
139.429
151.461
160.548
166.762
170.282
171.357
170.275
167.343
162.866
27.1913
23.228
18.4218
13.2695
8.43587
4.57243
2.0623
1.38678
5.19796
16.2933
32.6087
51.7638
71.9457
91.7494
110.143
126.423
140.166
151.168
159.399
164.954
168.014
168.817
167.633
164.741
160.422
26.462
22.8029
18.3077
13.4077
8.70243
4.82205
2.26952
2.1963
7.97457
20.8009
37.8807
57.0344
76.6516
95.5327
112.824
127.965
140.632
150.69
158.145
163.109
165.762
166.33
165.064
162.222
158.061
25.7392
22.3638
18.1654
13.5169
8.9546
5.08211
2.60225
3.56119
11.3985
25.5568
43.0898
62.0281
80.9663
98.8921
115.107
129.169
140.837
150.029
156.782
161.217
163.51
163.878
162.55
159.767
155.761
25.021
21.9102
17.9948
13.5955
9.18819
5.36053
3.17375
5.59172
15.315
30.4187
48.1273
66.6771
84.8545
101.813
116.988
130.034
140.778
149.182
155.302
159.266
161.246
161.445
160.078
157.363
153.516
24.2962
21.4318
17.7857
13.6325
9.39296
5.68461
4.13274
8.2872
19.55
35.2512
52.8924
70.9112
88.2673
104.258
118.43
130.521
140.411
148.095
153.645
157.192
158.901
158.964
157.578
154.945
151.262
23.569
20.9298
17.5347
13.6187
9.5649
6.13372
5.63593
11.5934
24.0027
39.996
57.3657
74.7431
91.2415
106.281
119.501
130.704
139.815
146.853
151.9
155.086
156.571
156.532
155.153
152.619
149.109
14.9761
15.1869
15.6394
16.3003
17.1357
18.1027
19.1495
20.2161
21.2376
22.1456
22.872
23.3506
23.5204
23.3279
22.7302
13.579
13.7576
14.1417
14.7035
15.4156
16.2428
17.1429
18.0671
18.9623
19.7724
20.4409
20.9126
21.1351
21.0612
20.6512
12.3575
12.5104
12.8395
13.3219
13.9351
14.6507
15.434
16.2449
17.0392
17.7698
18.3882
18.8459
19.0965
19.0996
18.83
11.3007
11.4339
11.721
12.1427
12.6805
13.3106
14.0039
14.7262
15.4392
16.1014
16.6704
17.1063
17.3786
17.4794
17.4443
10.4101
10.5291
10.7857
11.1632
11.6452
12.2111
12.8349
13.4865
14.1329
14.7414
15.2855
15.7539
16.1635
16.5739
17.096
9.70879
9.81852
10.0551
10.4031
10.8476
11.3702
11.9494
12.5633
13.1938
13.8331
14.4913
15.2042
16.0367
17.0785
18.4351
9.28632
9.39345
9.62498
9.96717
10.4089
10.9389
11.5486
12.2354
13.0076
13.8872
14.9108
16.1286
17.5993
19.3823
21.5312
9.46259
9.58278
9.8453
10.2408
10.7664
11.4229
12.2161
13.1584
14.269
15.5732
17.0997
18.8782
20.9352
23.2911
25.9575
11.0578
11.2132
11.5549
12.0752
12.7748
13.6577
14.7305
16.0017
17.4813
19.1794
21.1046
23.2623
25.654
28.2755
31.1167
15.0451
15.2334
15.647
16.2746
17.1137
18.1626
19.42
20.8838
22.5508
24.4164
26.4741
28.7148
31.1266
33.695
36.4028
21.363
21.5536
21.9715
22.6029
23.4418
24.4818
25.7156
27.1344
28.728
30.4847
32.3914
34.4337
36.5959
38.8612
41.2123
28.6213
28.7844
29.1413
29.6795
30.3924
31.2727
32.3119
33.5004
34.8272
36.2802
37.8463
39.5118
41.2623
43.0831
44.9595
35.0357
35.1579
35.4253
35.8286
36.3621
37.0203
37.7964
38.6826
39.6705
40.7506
41.9129
43.1469
44.4417
45.7863
47.1697
39.3403
39.423
39.6039
39.877
40.2385
40.6846
41.2108
41.812
42.4826
43.2164
44.0067
44.8465
45.7286
46.6457
47.5903
41.0637
41.115
41.2272
41.3969
41.6216
41.8992
42.227
42.602
43.0208
43.4798
43.9749
44.502
45.0566
45.6344
46.2308
40.3453
40.3745
40.4384
40.5352
40.6635
40.8221
41.0095
41.2242
41.4642
41.7276
42.0121
42.3154
42.6351
42.9686
43.3134
37.6435
37.6586
37.6916
37.7416
37.808
37.8901
37.9872
38.0984
38.2227
38.3592
38.5066
38.6638
38.8294
39.0021
39.1805
33.5692
33.576
33.591
33.6138
33.644
33.6813
33.7254
33.7758
33.8319
33.8934
33.9596
34.0299
34.1035
34.1799
34.2583
28.8614
28.8638
28.8691
28.8773
28.8881
28.9015
28.917
28.9347
28.9541
28.9751
28.9973
29.0204
29.0439
29.0676
29.0911
24.3035
24.3036
24.304
24.3046
24.3055
24.3065
24.3075
24.3084
24.3089
24.309
24.3085
24.3071
24.3046
24.3008
24.2954
20.4652
20.464
20.4617
20.4583
20.454
20.4485
20.4418
20.4339
20.4245
20.4136
20.4011
20.3868
20.3704
20.352
20.3312
17.5086
17.5067
17.5028
17.4974
17.4902
17.4813
17.4706
17.458
17.4433
17.4267
17.4078
17.3865
17.3629
17.3366
17.3077
15.2782
15.2759
15.2714
15.2649
15.2565
15.246
15.2335
15.2188
15.2018
15.1825
15.1608
15.1366
15.1097
15.0801
15.0476
13.523
13.5207
13.516
13.5094
13.5007
13.49
13.4771
13.462
13.4447
13.425
13.4029
13.3783
13.351
13.321
13.2882
12.0376
12.0354
12.031
12.0247
12.0164
12.0062
11.994
11.9797
11.9633
11.9446
11.9237
11.9003
11.8745
11.8462
11.8152
10.6957
10.6937
10.6897
10.684
10.6766
10.6674
10.6564
10.6436
10.6288
10.612
10.5931
10.5721
10.5489
10.5234
10.4955
9.4354
9.43369
9.43025
9.42535
9.41895
9.41103
9.40152
9.3904
9.37761
9.36308
9.34677
9.3286
9.30851
9.28642
9.26225
8.23662
8.23519
8.23234
8.22826
8.22293
8.21633
8.20841
8.19913
8.18845
8.17632
8.16269
8.1475
8.13069
8.11219
8.09193
7.10222
7.10108
7.09878
7.0955
7.09121
7.08588
7.07949
7.072
7.06337
7.05356
7.04252
7.03021
7.01657
7.00154
6.98508
6.04525
6.04436
6.04258
6.04002
6.03667
6.03251
6.02751
6.02165
6.01488
6.00719
5.99852
5.98884
5.9781
5.96626
5.95326
5.08047
5.0798
5.07846
5.07653
5.074
5.07085
5.06707
5.06262
5.05749
5.05163
5.04503
5.03765
5.02945
5.02038
5.01042
4.21935
4.21887
4.2179
4.21649
4.21465
4.21235
4.20958
4.20632
4.20255
4.19825
4.19338
4.18792
4.18185
4.17512
4.16771
3.46769
3.46736
3.46668
3.4657
3.46441
3.46279
3.46084
3.45854
3.45587
3.45282
3.44935
3.44546
3.44111
3.43628
3.43094
2.82509
2.82488
2.82443
2.82377
2.82291
2.82183
2.82052
2.81896
2.81716
2.81508
2.81271
2.81004
2.80705
2.80371
2.8
2.28585
2.28572
2.28545
2.28504
2.2845
2.28382
2.28299
2.282
2.28085
2.27951
2.27797
2.27623
2.27427
2.27206
2.26959
1.8405
1.84043
1.84027
1.84005
1.83974
1.83936
1.83888
1.83831
1.83763
1.83683
1.83591
1.83486
1.83365
1.83228
1.83073
1.47745
1.47742
1.47735
1.47725
1.47712
1.47694
1.47671
1.47643
1.47609
1.47568
1.4752
1.47463
1.47397
1.4732
1.47232
1.1845
1.1845
1.18449
1.18448
1.18446
1.18442
1.18436
1.18428
1.18417
1.18403
1.18385
1.18362
1.18334
1.18299
1.18257
0.949893
0.949911
0.949943
0.949985
0.950033
0.950086
0.950141
0.950194
0.950241
0.950277
0.950297
0.950295
0.950264
0.950198
0.950089
0.762959
0.762988
0.763043
0.763118
0.763211
0.763321
0.763446
0.763581
0.763725
0.763873
0.76402
0.764163
0.764295
0.764412
0.764507
0.61445
0.614484
0.614551
0.614645
0.614763
0.614905
0.615069
0.615252
0.615451
0.615665
0.615888
0.616117
0.616349
0.616578
0.6168
0.496597
0.496634
0.496706
0.496808
0.496938
0.497095
0.497277
0.497484
0.497712
0.497959
0.498222
0.498498
0.498784
0.499076
0.499371
0.403036
0.403073
0.403145
0.403248
0.403381
0.403541
0.403729
0.403943
0.404181
0.40444
0.404719
0.405016
0.405326
0.405648
0.405978
0.328638
0.328674
0.328744
0.328844
0.328973
0.329131
0.329315
0.329526
0.329761
0.330019
0.330298
0.330596
0.330911
0.33124
0.331581
0.269328
0.269361
0.269427
0.269521
0.269644
0.269793
0.269969
0.27017
0.270395
0.270643
0.270912
0.271201
0.271508
0.27183
0.272166
0.221888
0.221919
0.22198
0.222067
0.222181
0.22232
0.222483
0.222671
0.222882
0.223115
0.223368
0.223641
0.223931
0.224238
0.224559
0.183805
0.183833
0.183889
0.183969
0.184072
0.1842
0.18435
0.184522
0.184716
0.184931
0.185165
0.185418
0.185688
0.185974
0.186274
0.153106
0.153131
0.153181
0.153253
0.153347
0.153462
0.153598
0.153754
0.15393
0.154125
0.154339
0.154569
0.154817
0.155079
0.155356
0.128295
0.128317
0.128362
0.128427
0.128511
0.128614
0.128737
0.128878
0.129036
0.129213
0.129406
0.129615
0.12984
0.130079
0.130331
0.108503
0.108522
0.108562
0.10862
0.108696
0.108789
0.108898
0.109025
0.109168
0.109327
0.109502
0.109691
0.109894
0.110111
0.110341
21.5447
19.4655
16.7195
13.5693
10.8148
10.2667
14.2243
23.5538
36.8876
52.1764
67.9147
83.145
97.2684
109.919
120.892
130.093
137.511
143.195
147.234
149.746
150.864
150.735
149.504
147.319
144.321
19.7588
18.144
16.1232
14.3706
14.2388
17.275
24.2862
34.8815
47.8045
61.7141
75.5957
88.7753
100.832
111.52
120.715
128.375
134.518
139.201
142.511
144.551
145.435
145.282
144.213
142.344