/*--------------------------------*- C++ -*----------------------------------*\
| =========                 |                                                 |
| \\      /  F ield         | OpenFOAM: The Open Source CFD Toolbox           |
|  \\    /   O peration     | Version:  1.7.x                                 |
|   \\  /    A nd           | Web:      www.OpenFOAM.com                      |
|    \\/     M anipulation  |                                                 |
\*---------------------------------------------------------------------------*/
FoamFile
{
    version     2.0;
    format      ascii;
    class       volScalarField;
    location    "1750";
    object      k;
}
// * * * * * * * * * * * * * * * * * * * * * * * * * * * * * * * * * * * * * //

dimensions      [0 2 -2 0 0 0 0];

internalField   nonuniform List<scalar> 
11750
(
0.557089
0.0956847
0.0133923
0.00223725
0.00103048
0.00097478
0.000994595
0.00100509
0.00100878
0.00100942
0.00100899
0.00100837
0.00100772
0.00100696
0.00100576
0.00100341
0.000998577
0.00098901
0.000972867
0.000970435
0.00120215
0.00318668
0.0167337
0.102769
0.558498
0.62744
0.176067
0.0351606
0.00513577
0.00122015
0.000944493
0.000975077
0.000996705
0.00100556
0.00100838
0.00100863
0.00100802
0.00100703
0.00100552
0.00100283
0.000997536
0.000987067
0.000966953
0.000935973
0.000973428
0.00180549
0.00815939
0.0452468
0.191804
0.61717
0.59968
0.256215
0.0818357
0.0152996
0.00232152
0.000983718
0.000956144
0.000984856
0.000998752
0.00100405
0.00100531
0.00100489
0.00100357
0.00100118
0.00099675
0.000988269
0.00097214
0.000943815
0.000928272
0.00128683
0.00477174
0.0263661
0.107826
0.282985
0.582137
0.575397
0.321925
0.146288
0.0407743
0.00648507
0.00131461
0.000956411
0.000973441
0.000990831
0.000998486
0.00100086
0.00100073
0.000999087
0.000995766
0.000989545
0.000978022
0.000957617
0.000934071
0.00106421
0.00285279
0.0157234
0.0694935
0.188865
0.356304
0.555333
0.564058
0.367974
0.206508
0.0813042
0.0177109
0.00260786
0.00102754
0.000967245
0.000983298
0.000992735
0.000996193
0.000996381
0.000994437
0.000990178
0.000982271
0.000968406
0.0009487
0.000978247
0.00172958
0.00842315
0.0422782
0.12964
0.259702
0.405802
0.543102
0.56029
0.398165
0.252551
0.125675
0.0384201
0.00630426
0.00131388
0.000976034
0.000977382
0.000987244
0.000991567
0.000992066
0.000989835
0.000984709
0.00097546
0.000961119
0.000957283
0.00119953
0.00401703
0.0224738
0.0831785
0.187907
0.311613
0.436864
0.538516
0.55978
0.417747
0.285423
0.164493
0.0658518
0.0141465
0.00215369
0.00102233
0.000974886
0.000982369
0.000987138
0.000987881
0.000985392
0.000979557
0.000969681
0.000959295
0.00101431
0.00193087
0.0100262
0.046885
0.128026
0.23522
0.347639
0.456177
0.536956
0.560485
0.430712
0.308681
0.195217
0.094473
0.0267553
0.00412412
0.00115484
0.000978923
0.000978501
0.000983035
0.000983908
0.000981205
0.000974931
0.000965752
0.000969466
0.00119535
0.00388213
0.0218246
0.0779396
0.168549
0.271245
0.372609
0.468491
0.536476
0.561594
0.439616
0.32538
0.218813
0.120299
0.042932
0.00785719
0.00146723
0.000994946
0.00097611
0.000979364
0.000980206
0.000977349
0.000971053
0.000964965
0.00100511
0.00166334
0.00810056
0.0395079
0.109874
0.202119
0.298303
0.390273
0.476671
0.536386
0.562795
0.445983
0.33766
0.236923
0.141986
0.0604925
0.0136856
0.00210761
0.00103203
0.000975803
0.000976216
0.000976811
0.00097389
0.00096819
0.000969457
0.00109252
0.00270948
0.0154675
0.0608979
0.138968
0.229089
0.318776
0.403122
0.482364
0.536446
0.563968
0.450693
0.346927
0.250968
0.159722
0.0775041
0.0214343
0.00325419
0.00110434
0.000978389
0.000973676
0.000973752
0.000970885
0.00096668
0.00098273
0.00127892
0.00473146
0.0260841
0.0831441
0.163997
0.250628
0.334508
0.412744
0.486511
0.536573
0.565073
0.454293
0.354085
0.262019
0.174167
0.0928668
0.030515
0.00505757
0.00123235
0.000984922
0.000971821
0.000971049
0.000968391
0.000966963
0.00101028
0.00163977
0.00810467
0.0391659
0.104188
0.185047
0.26791
0.346815
0.420148
0.489656
0.536733
0.566099
0.457139
0.359735
0.270847
0.185981
0.106224
0.0401903
0.00758435
0.0014425
0.000996708
0.00097073
0.000968715
0.000966463
0.000969616
0.00106029
0.00227802
0.0130129
0.0534796
0.12308
0.202636
0.281903
0.35661
0.425983
0.492125
0.536913
0.567046
0.459462
0.36427
0.278
0.195713
0.117648
0.0498082
0.0107956
0.00176371
0.00101526
0.000970472
0.000966756
0.000965155
0.000975371
0.00114418
0.00330774
0.0193622
0.0678695
0.139614
0.217343
0.293351
0.364533
0.430678
0.494117
0.537103
0.56792
0.461403
0.367974
0.28387
0.203794
0.127371
0.0589146
0.0145644
0.00222148
0.00104222
0.000971109
0.000965171
0.00096452
0.00098512
0.00127671
0.00482506
0.0268236
0.0815405
0.153937
0.229689
0.302817
0.371033
0.434521
0.49576
0.537297
0.568726
0.463049
0.371047
0.288735
0.210556
0.135659
0.0672588
0.0187147
0.0028317
0.00107929
0.000972693
0.000963955
0.000964606
0.000999904
0.00147532
0.00688029
0.034954
0.0940804
0.166304
0.240111
0.31072
0.376434
0.437714
0.49714
0.537489
0.569471
0.464462
0.373626
0.292797
0.216257
0.142745
0.0747453
0.0230604
0.00359669
0.00112804
0.000975256
0.000963094
0.000965462
0.0010209
0.00175838
0.00946527
0.0433175
0.105355
0.176987
0.248963
0.317379
0.38097
0.440399
0.498313
0.537675
0.570168
0.465678
0.375802
0.296213
0.22108
0.148825
0.0813755
0.0274318
0.00450381
0.00118973
0.000978807
0.000962571
0.000967141
0.00104945
0.00214297
0.0125194
0.0515634
0.115392
0.186235
0.256532
0.32304
0.384819
0.442681
0.499318
0.537847
0.570837
0.466717
0.377635
0.29909
0.225156
0.154046
0.0872051
0.0316891
0.00552593
0.00126497
0.000983323
0.00096237
0.000969717
0.00108716
0.00264323
0.0159488
0.0594538
0.124297
0.194274
0.263049
0.327895
0.388116
0.444639
0.500183
0.537995
0.571507
0.467579
0.379152
0.301491
0.228588
0.158493
0.0922847
0.035735
0.00663766
0.00135377
0.000988744
0.000962476
0.000973323
0.00113624
0.0032704
0.0196508
0.0668601
0.132206
0.201303
0.26871
0.332099
0.39097
0.446334
0.500924
0.538103
0.572226
0.468246
0.380351
0.303442
0.231429
0.162234
0.096644
0.0394815
0.00780863
0.00145523
0.00099497
0.000962893
0.000978232
0.00120014
0.00403518
0.0235349
0.0737437
0.139269
0.207506
0.273681
0.335786
0.393475
0.447819
0.50155
0.538145
0.573064
0.468673
0.381197
0.30493
0.233692
0.165299
0.100305
0.0428493
0.00899453
0.00156709
0.00100185
0.000963664
0.000984998
0.00128469
0.00495199
0.0275392
0.0801348
0.145641
0.213053
0.278115
0.339077
0.395712
0.449137
0.502064
0.538082
0.574119
0.46879
0.381619
0.305903
0.235345
0.167674
0.10326
0.0457634
0.0101457
0.00168561
0.00100919
0.000964927
0.000994727
0.00139976
0.00604431
0.0316387
0.0861146
0.151483
0.218109
0.282158
0.342085
0.397762
0.450332
0.502461
0.537862
0.575516
0.468491
0.381507
0.306267
0.236315
0.169305
0.105468
0.0481459
0.0112081
0.00180544
0.00101679
0.000967014
0.00100955
0.00156157
0.00734935
0.0358476
0.0918
0.156959
0.222839
0.285951
0.344923
0.399705
0.451446
0.502731
0.537415
0.577409
0.467634
0.38071
0.305886
0.236485
0.170099
0.106858
0.0499144
0.0121247
0.00191988
0.00102449
0.000970634
0.00103342
0.00179539
0.00892065
0.0402148
0.0973303
0.162239
0.227403
0.289633
0.347702
0.401619
0.452522
0.502864
0.536656
0.579971
0.466025
0.379021
0.304571
0.235695
0.169927
0.107334
0.0509852
0.0128398
0.00202144
0.00103235
0.000977158
0.00107343
0.00213812
0.0108268
0.0448137
0.102854
0.167485
0.231957
0.293342
0.350536
0.403592
0.45361
0.502851
0.535494
0.583379
0.463382
0.376143
0.302058
0.233725
0.168618
0.106779
0.0512824
0.013305
0.00210286
0.0010408
0.000988985
0.00114163
0.00263942
0.0131445
0.0497255
0.108509
0.172847
0.236645
0.297212
0.353547
0.405726
0.454783
0.502702
0.533829
0.587797
0.459203
0.371583
0.29794
0.230267
0.165964
0.105077
0.0507538
0.0134879
0.00215857
0.00105087
0.00100989
0.00125682
0.0033591
0.0159436
0.0550145
0.114402
0.178439
0.24159
0.301373
0.356876
0.408179
0.456194
0.502492
0.531563
0.5932
0.452708
0.364441
0.291562
0.224901
0.161731
0.102132
0.0493945
0.0133814
0.00218614
0.0010642
0.00104539
0.00144492
0.00435738
0.0192624
0.0606954
0.120573
0.184308
0.246853
0.305924
0.360692
0.411228
0.458285
0.502901
0.528479
0.600375
0.437858
0.352001
0.281624
0.217032
0.155694
0.0979272
0.0472728
0.013011
0.00218747
0.00108331
0.0011035
0.00173589
0.00567917
0.0230851
0.0667131
0.126973
0.190399
0.252371
0.31079
0.364905
0.414759
0.460771
0.502438
0.525927
1.27131
1.26678
1.25984
1.25014
1.23713
1.22036
1.1993
1.1733
1.14136
1.10094
1.04457
0.965656
0.882955
0.790174
0.699012
1.69245
1.69129
1.68731
1.68108
1.67267
1.66288
1.65319
1.64686
1.65203
1.68864
1.78784
1.89803
1.81501
1.51509
1.06228
1.82285
1.83056
1.84729
1.8728
1.90784
1.95429
2.01512
2.09216
2.17695
2.22942
2.18116
2.02581
1.7768
1.41434
0.955111
2.05769
2.07288
2.10449
2.15007
2.20528
2.26337
2.31261
2.33321
2.29445
2.18982
2.03895
1.8341
1.55503
1.19779
0.801063
2.21016
2.22419
2.25124
2.28597
2.31828
2.33402
2.31264
2.24422
2.14294
2.01458
1.8466
1.62479
1.34244
1.01225
0.680817
2.21615
2.2217
2.22809
2.22586
2.20564
2.16499
2.11004
2.04247
1.95305
1.82952
1.66101
1.44087
1.17193
0.875186
0.596503
1.94313
1.94309
1.94206
1.94226
1.94078
1.93192
1.90847
1.86242
1.78534
1.66898
1.50668
1.29639
1.04589
0.779299
0.538925
1.69992
1.70599
1.71753
1.73219
1.74491
1.74936
1.7382
1.70342
1.6368
1.53077
1.38002
1.18446
0.953816
0.712626
0.49944
1.52536
1.53278
1.54721
1.56567
1.58325
1.59385
1.59015
1.56413
1.50762
1.41333
1.27645
1.09744
0.886148
0.66602
0.472249
1.38634
1.39416
1.40957
1.42951
1.44938
1.46339
1.4646
1.44532
1.39773
1.31481
1.19192
1.02932
0.835996
0.633419
0.453774
1.27262
1.28043
1.296
1.31634
1.3372
1.35321
1.35787
1.344
1.30421
1.23181
1.12218
0.975119
0.798256
0.610665
0.44169
1.17746
1.18513
1.20052
1.2208
1.24206
1.25932
1.26658
1.25717
1.22418
1.16125
1.06382
0.931117
0.769302
0.594883
0.434409
1.0966
1.10406
1.11914
1.13915
1.1605
1.17859
1.18789
1.1822
1.15511
1.10063
1.01422
0.894627
0.746572
0.58404
0.430785
1.02703
1.03427
1.04899
1.06864
1.08992
1.10857
1.11949
1.11696
1.095
1.04796
0.971431
0.863713
0.728252
0.576666
0.429933
0.966558
0.973584
0.987919
1.00719
1.02831
1.04735
1.05959
1.05973
1.04221
1.00174
0.933998
0.836986
0.713049
0.571674
0.431139
0.913537
0.920357
0.934324
0.953198
0.974118
0.993428
1.00674
1.00915
0.995485
0.960765
0.900833
0.813445
0.700047
0.568263
0.43381
0.866703
0.873331
0.886946
0.905434
0.926124
0.945607
0.959802
0.964139
0.95381
0.924136
0.87112
0.792366
0.688595
0.56584
0.437451
0.825067
0.831514
0.844797
0.862911
0.883354
0.902935
0.917845
0.923823
0.916382
0.891129
0.844235
0.77322
0.678233
0.563972
0.441653
0.787841
0.79412
0.807087
0.82484
0.845022
0.864639
0.880125
0.887495
0.882553
0.861172
0.819698
0.755617
0.668637
0.562349
0.446088
0.75439
0.76051
0.773177
0.790578
0.810489
0.830089
0.84603
0.854576
0.851796
0.833808
0.797136
0.739266
0.659577
0.560755
0.450496
0.724193
0.730162
0.742541
0.759599
0.779228
0.798766
0.815057
0.824592
0.823678
0.808666
0.77625
0.723949
0.650895
0.559042
0.454687
0.696821
0.702646
0.714747
0.731466
0.750804
0.770237
0.786787
0.797146
0.797844
0.785442
0.756801
0.709497
0.642481
0.557118
0.45852
0.671914
0.6776
0.689429
0.705814
0.72485
0.744141
0.760867
0.771909
0.773995
0.763883
0.738597
0.695779
0.634258
0.554925
0.461903
0.649167
0.654717
0.666281
0.682333
0.701055
0.720169
0.737002
0.7486
0.751879
0.743779
0.721477
0.682693
0.626174
0.552437
0.464778
0.628321
0.63374
0.645041
0.660759
0.679158
0.698064
0.714938
0.726985
0.731286
0.724952
0.705308
0.670156
0.618194
0.549641
0.467113
0.609155
0.614443
0.625484
0.640868
0.658931
0.677602
0.694462
0.70686
0.712034
0.707252
0.689978
0.658101
0.610293
0.546541
0.468899
0.591476
0.596635
0.607417
0.622464
0.640183
0.658592
0.675388
0.688053
0.693968
0.69055
0.675392
0.646473
0.602455
0.543147
0.470141
0.575117
0.580148
0.590672
0.60538
0.622743
0.640868
0.657557
0.670413
0.676956
0.674735
0.66147
0.635225
0.59467
0.539474
0.470853
0.559933
0.564837
0.575103
0.589469
0.606468
0.624287
0.64083
0.653813
0.660881
0.659712
0.648141
0.624318
0.586931
0.535541
0.471057
0.545797
0.550573
0.560581
0.574602
0.591229
0.608725
0.625087
0.63814
0.645644
0.645398
0.635345
0.613719
0.579232
0.531368
0.470781
0.532594
0.537244
0.546993
0.560667
0.576915
0.594072
0.610223
0.623296
0.631159
0.63172
0.62303
0.603399
0.571572
0.526973
0.470052
0.520227
0.524751
0.534241
0.547566
0.563428
0.580233
0.596148
0.609195
0.617348
0.618617
0.61115
0.593334
0.56395
0.522378
0.468901
0.508608
0.513005
0.522237
0.535212
0.550684
0.567124
0.58278
0.595764
0.604146
0.606033
0.599665
0.583503
0.556364
0.5176
0.467358
0.497658
0.50193
0.510903
0.523527
0.538605
0.554671
0.570049
0.582937
0.591494
0.593921
0.588541
0.573888
0.548816
0.512659
0.465452
0.487309
0.491456
0.500171
0.512444
0.527125
0.54281
0.557894
0.570656
0.579341
0.582237
0.577747
0.564472
0.541305
0.50757
0.463213
0.477498
0.481521
0.48998
0.501903
0.516186
0.531483
0.54626
0.558872
0.567644
0.570945
0.567257
0.555242
0.533833
0.50235
0.460668
0.468172
0.472072
0.480276
0.49185
0.505734
0.52064
0.535098
0.547538
0.556361
0.560013
0.557047
0.546186
0.526401
0.497015
0.457844
0.459281
0.463059
0.471011
0.482238
0.495724
0.510235
0.524367
0.536616
0.545459
0.549412
0.547097
0.537294
0.519011
0.491578
0.454764
0.450783
0.45444
0.462142
0.473024
0.486115
0.500231
0.514028
0.526072
0.534907
0.539118
0.537389
0.528556
0.511666
0.486054
0.451453
0.442637
0.446175
0.45363
0.464172
0.476869
0.49059
0.504049
0.515875
0.524677
0.529107
0.527908
0.519967
0.504366
0.480454
0.447933
0.434811
0.438231
0.445443
0.455648
0.467956
0.481283
0.494401
0.505998
0.514747
0.519361
0.518639
0.511518
0.497116
0.47479
0.444224
0.427272
0.430577
0.437549
0.447423
0.459346
0.472282
0.485057
0.496417
0.505096
0.509862
0.509572
0.503207
0.489917
0.469076
0.440348
0.419994
0.423186
0.429922
0.43947
0.451013
0.463562
0.475993
0.487111
0.495704
0.500597
0.500696
0.495027
0.482772
0.463321
0.436324
0.412951
0.416032
0.422537
0.431765
0.442934
0.4551
0.467191
0.478061
0.486555
0.491551
0.492002
0.486975
0.475686
0.457536
0.43217
0.406123
0.409095
0.415374
0.424287
0.435089
0.446878
0.458629
0.469249
0.477634
0.482711
0.48348
0.479048
0.468658
0.45173
0.427901
0.399488
0.402354
0.408411
0.417017
0.427459
0.438876
0.45029
0.460658
0.468924
0.474064
0.47512
0.471237
0.461689
0.445908
0.42353
0.393031
0.395793
0.401633
0.409936
0.420024
0.431074
0.442154
0.452267
0.460405
0.465588
0.466902
0.463527
0.454764
0.440061
0.419053
0.386738
0.389398
0.395025
0.403032
0.412771
0.423458
0.434204
0.444057
0.452055
0.457261
0.458802
0.455892
0.447857
0.434164
0.414448
0.38059
0.383148
0.388562
0.396272
0.40566
0.415979
0.426381
0.435959
0.443794
0.448993
0.45072
0.448222
0.440853
0.428096
0.409587
0.374573
0.377035
0.382246
0.389671
0.39872
0.40868
0.418743
0.428043
0.435702
0.440868
0.442741
0.440601
0.433828
0.421919
0.404511
0.655417
0.417186
0.330374
0.265173
0.204548
0.146352
0.0914905
0.0439346
0.0122821
0.00216035
0.00111825
0.001224
0.00228423
0.0077721
0.0283068
0.0742448
0.134761
0.197726
0.258956
0.316554
0.369878
0.419247
0.466974
0.527384
0.677406
0.617805
0.388408
0.305455
0.245845
0.189566
0.134982
0.0836121
0.0397956
0.0112829
0.00211175
0.00118036
0.00145554
0.00320373
0.0107358
0.0347357
0.0827906
0.14333
0.20563
0.265931
0.322561
0.375169
0.425193
0.480424
0.581082
0.880791
0.550776
0.359406
0.282537
0.227103
0.174371
0.123109
0.0752769
0.0353807
0.0101557
0.00205996
0.00129355
0.00186961
0.00462364
0.0146618
0.0422445
0.0920777
0.152376
0.213811
0.273043
0.328724
0.38121
0.43451
0.506102
0.666015
1.06971
0.487991
0.333813
0.262907
0.210291
0.160252
0.111841
0.0673198
0.0311685
0.00904948
0.00202947
0.00149078
0.00253361
0.00661707
0.0194921
0.0505309
0.101719
0.161529
0.221946
0.280079
0.33511
0.388778
0.449565
0.548314
0.777916
1.21894
0.438481
0.311967
0.246098
0.19554
0.147644
0.101707
0.0601977
0.0274364
0.00806507
0.00204322
0.00180176
0.00348392
0.0091684
0.0250286
0.0591985
0.111307
0.170435
0.229766
0.286941
0.342007
0.399008
0.47291
0.609321
0.904885
1.32274
0.401124
0.293415
0.231591
0.182719
0.136641
0.0928987
0.0540829
0.0242856
0.00724859
0.00211599
0.00223991
0.00471252
0.01218
0.0309964
0.0678588
0.120502
0.178835
0.237132
0.293716
0.349967
0.413316
0.50687
0.688446
1.03255
1.39099
0.373125
0.277718
0.219062
0.17167
0.127206
0.0854245
0.0489798
0.02171
0.00660708
0.00225148
0.0027977
0.00617155
0.0155054
0.0371147
0.0762012
0.129076
0.186592
0.244048
0.300676
0.359764
0.433236
0.553034
0.781879
1.1494
1.43707
0.35199
0.264472
0.208264
0.16221
0.119212
0.0791868
0.0448007
0.0196486
0.0061251
0.00244318
0.00345059
0.00778949
0.0189873
0.0431465
0.0840181
0.136919
0.19369
0.250655
0.308247
0.372319
0.460233
0.611813
0.883558
1.24961
1.4713
0.336008
0.253355
0.198992
0.154148
0.112493
0.0740347
0.0414179
0.0180204
0.00577711
0.00267786
0.00416527
0.00948999
0.0224876
0.0489219
0.0912022
0.144014
0.200212
0.2572
0.316976
0.38864
0.49552
0.682202
0.986847
1.3326
1.4999
0.32409
0.244129
0.191075
0.147301
0.106871
0.0698053
0.0386986
0.0167446
0.00553563
0.00293971
0.00490786
0.011206
0.0259028
0.0543404
0.097729
0.150423
0.206315
0.264013
0.327502
0.409765
0.539872
0.761853
1.08619
1.40087
1.52608
0.315512
0.236599
0.184353
0.141498
0.102177
0.0663445
0.0365213
0.0157499
0.00537553
0.00321368
0.00564943
0.0128869
0.029167
0.0593604
0.103633
0.156261
0.212214
0.271501
0.340553
0.43671
0.593454
0.847498
1.17804
1.4578
1.55137
0.309766
0.230607
0.178689
0.136584
0.0982578
0.0635157
0.0347819
0.0149772
0.00527582
0.00348738
0.00636852
0.0145
0.0322478
0.063984
0.10899
0.161676
0.218171
0.280139
0.356937
0.470378
0.655686
0.935578
1.26089
1.50643
1.57645
0.30648
0.226032
0.173966
0.132427
0.0949807
0.0612027
0.0333948
0.0143793
0.00521995
0.00375185
0.00705146
0.0160287
0.0351385
0.0682435
0.113899
0.166847
0.224497
0.290487
0.377534
0.511437
0.72526
1.02296
1.33486
1.54876
1.60095
0.305358
0.222784
0.170093
0.128917
0.0922355
0.0593097
0.0322905
0.0139189
0.0051954
0.00400142
0.0076915
0.0174693
0.0378508
0.0721902
0.118478
0.171978
0.231558
0.3032
0.403252
0.560195
0.800391
1.10752
1.40073
1.58538
1.62451
0.306138
0.220798
0.167003
0.125966
0.089932
0.0577583
0.0314137
0.0135674
0.00519302
0.00423319
0.0082873
0.0188275
0.0404086
0.0758877
0.122856
0.177304
0.239793
0.319034
0.434963
0.616509
0.879096
1.18781
1.4585
1.61776
1.64762
0.308573
0.220023
0.164652
0.123509
0.087998
0.0564858
0.0307204
0.0133023
0.00520631
0.00444644
0.0088415
0.0201152
0.0428434
0.0794079
0.12718
0.183103
0.249729
0.338838
0.473395
0.679718
0.95933
1.26269
1.50865
1.64735
1.67049
0.312416
0.220416
0.163013
0.121496
0.0863771
0.0554419
0.0301758
0.0131065
0.00523073
0.00464194
0.00935949
0.0213486
0.0451918
0.082831
0.131617
0.189712
0.262006
0.363532
0.519041
0.748859
1.03944
1.33001
1.55315
1.67502
1.69318
0.317411
0.22193
0.162077
0.119897
0.0850265
0.0545872
0.0297524
0.0129666
0.00526324
0.00482151
0.00984841
0.0225465
0.0474941
0.0862478
0.136369
0.197553
0.277387
0.394029
0.572023
0.82246
1.11644
1.39069
1.59335
1.70133
1.71573
0.3233
0.224508
0.161842
0.118694
0.0839148
0.0538906
0.0294284
0.0128723
0.00530187
0.00498758
0.0103165
0.0237298
0.0497952
0.0897656
0.141686
0.20715
0.296743
0.431108
0.631898
0.898531
1.18857
1.44578
1.63026
1.72662
1.73811
0.329828
0.228079
0.162315
0.117881
0.083021
0.0533286
0.0291868
0.0128158
0.00534536
0.00514292
0.0107729
0.0249207
0.0521467
0.0935172
0.147889
0.219159
0.321033
0.475367
0.697983
0.97387
1.2559
1.49622
1.66457
1.7511
1.76028
0.33675
0.232552
0.163502
0.117463
0.0823329
0.0528838
0.0290143
0.0127907
0.00539304
0.00529051
0.0112271
0.026144
0.0546109
0.0976739
0.155394
0.23437
0.351194
0.526901
0.768097
1.04719
1.31869
1.54275
1.69681
1.77491
1.78223
0.343842
0.237814
0.165407
0.117451
0.0818459
0.0525442
0.0289007
0.0127925
0.00544455
0.00543343
0.0116895
0.0274282
0.0572673
0.102465
0.16474
0.2537
0.388028
0.585321
0.839859
1.11781
1.37729
1.58601
1.72735
1.79813
1.80391
0.350906
0.243738
0.168024
0.117865
0.0815624
0.0523024
0.0288385
0.0128174
0.00549986
0.00557486
0.0121713
0.0288077
0.0602234
0.1082
0.176614
0.278144
0.432077
0.648918
0.91197
1.18538
1.43211
1.62647
1.75645
1.82084
1.8253
0.357779
0.250181
0.171336
0.118725
0.0814911
0.052155
0.0288222
0.0128628
0.00555911
0.00571811
0.0126857
0.0303272
0.063629
0.115303
0.191852
0.308615
0.483216
0.716065
0.983393
1.24976
1.48353
1.66454
1.78432
1.84306
1.84639
0.364328
0.256997
0.175311
0.120054
0.0816458
0.0521028
0.0288485
0.0129268
0.0056226
0.00586676
0.0132484
0.0320484
0.067698
0.124339
0.211432
0.345941
0.54038
0.785476
1.05337
1.31097
1.53188
1.70053
1.81112
1.86484
1.86717
0.370452
0.264037
0.1799
0.121872
0.0820451
0.05215
0.0289157
0.013008
0.00569079
0.00602489
0.0138804
0.0340598
0.0727371
0.13604
0.236347
0.390352
0.602453
0.855978
1.1214
1.36909
1.57748
1.7347
1.83697
1.88618
1.88763
0.37608
0.271162
0.18504
0.124194
0.082711
0.0523043
0.0290239
0.0131057
0.00576429
0.00619747
0.0146105
0.0364939
0.079184
0.151321
0.267585
0.441377
0.668305
0.926589
1.18713
1.42426
1.6206
1.76725
1.86197
1.90712
1.90777
0.381166
0.278243
0.190651
0.127027
0.0836683
0.0525768
0.0291748
0.0132198
0.0058439
0.00639095
0.0154814
0.0395511
0.0876454
0.171214
0.305762
0.49827
0.736772
0.996527
1.25039
1.47665
1.66149
1.79836
1.8862
1.92767
1.9276
0.385683
0.285169
0.196644
0.130369
0.0849426
0.0529818
0.0293719
0.0133506
0.00593066
0.00661446
0.0165593
0.0435362
0.0989302
0.196786
0.350946
0.560129
0.806765
1.0652
1.3111
1.52643
1.70035
1.82818
1.90974
1.94785
1.94713
0.389623
0.291844
0.202922
0.134206
0.0865595
0.0535366
0.0296203
0.0134991
0.00602602
0.00688182
0.0179504
0.0489083
0.114063
0.22904
0.402687
0.625887
0.877335
1.13219
1.36925
1.57378
1.73738
1.85684
1.93264
1.9677
1.96639
0.392988
0.298194
0.209385
0.13851
0.0885423
0.0542615
0.0299271
0.0136667
0.00613206
0.00721535
0.0198283
0.0563352
0.134191
0.268483
0.460342
0.694438
0.9477
1.19719
1.42488
1.61886
1.77274
1.88445
1.95496
1.98723
1.98537
0.39579
0.30416
0.215937
0.143243
0.0909102
0.0551789
0.0303014
0.0138557
0.00625199
0.00765314
0.0224797
0.0667521
0.16054
0.315096
0.522993
0.76474
1.01724
1.26004
1.47808
1.66185
1.80659
1.91112
1.97676
2.00647
2.00413
0.398048
0.3097
0.222485
0.148352
0.0936762
0.0563135
0.0307543
0.014069
0.00639105
0.00826308
0.0263729
0.0813647
0.194101
0.368414
0.589573
0.835871
1.08547
1.32064
1.52894
1.7029
1.83905
1.93693
1.99809
2.02545
2.02267
0.399784
0.314786
0.228946
0.153778
0.0968456
0.0576907
0.0312994
0.0143108
0.00655856
0.00916992
0.032246
0.101547
0.23535
0.427697
0.658994
0.907054
1.15207
1.37895
1.57758
1.74215
1.87027
1.96197
2.019
2.04421
2.04104
0.401025
0.319401
0.235247
0.159453
0.100415
0.0593361
0.0319526
0.0145865
0.00677219
0.0106069
0.0412063
0.128736
0.28412
0.491952
0.730236
0.977661
1.21679
1.43499
1.62412
1.77977
1.90034
1.98632
2.03955
2.06279
2.05928
0.401798
0.32354
0.241326
0.165306
0.104369
0.0612739
0.0327324
0.0149033
0.00706765
0.0130068
0.054755
0.163986
0.339777
0.560073
0.802396
1.0472
1.27948
1.4888
1.6687
1.81587
1.9294
2.01006
2.05978
2.08122
2.07743
0.402133
0.327203
0.247132
0.171264
0.108685
0.0635257
0.0336597
0.0152719
0.00752081
0.0171401
0.0746477
0.207655
0.401407
0.630963
0.874713
1.11532
1.34008
1.54047
1.71144
1.85059
1.95753
2.03327
2.07976
2.09955
2.09553
0.402056
0.330399
0.252626
0.177258
0.113328
0.0661085
0.0347575
0.0157086
0.00829836
0.0242895
0.102667
0.259289
0.467898
0.703611
0.946568
1.18174
1.39854
1.59009
1.75248
1.88406
1.98485
2.05602
2.09953
2.11783
2.11363
0.401598
0.333139
0.257778
0.183223
0.118255
0.0690335
0.0360514
0.0162428
0.00976506
0.0363339
0.139965
0.317933
0.53808
0.777135
1.01747
1.24631
1.4549
1.63776
1.79194
1.91639
2.01144
2.07838
2.11916
2.13611
2.13179
0.400785
0.335439
0.26257
0.189101
0.123418
0.072305
0.0375691
0.0169349
0.0126773
0.055563
0.186644
0.382435
0.610829
0.850794
1.08706
1.3089
1.50918
1.68359
1.82996
1.94771
2.03741
2.10044
2.13871
2.15445
2.15006
0.399646
0.337319
0.266988
0.194839
0.128764
0.075919
0.0393423
0.0179245
0.0184557
0.0842682
0.241715
0.451542
0.68514
0.923978
1.15505
1.36947
1.56147
1.72771
1.86666
1.97812
2.06284
2.12226
2.15823
2.1729
2.1685
0.398206
0.3388
0.27103
0.200396
0.134239
0.0798646
0.0414121
0.0195503
0.0293477
0.123706
0.303738
0.524002
0.760144
0.996206
1.22126
1.428
1.61183
1.77022
1.90215
2.00771
2.08781
2.1439
2.17779
2.1915
2.18716
0.396493
0.339904
0.274695
0.205738
0.139791
0.0841254
0.0438485
0.022593
0.0481721
0.173582
0.371247
0.598653
0.835105
1.06709
1.28554
1.48449
1.66035
1.81123
1.93653
2.03659
2.11241
2.16543
2.19743
2.21031
2.20608
0.39453
0.340656
0.277993
0.21084
0.145372
0.0886854
0.0468062
0.0286367
0.07769
0.232138
0.442843
0.674468
0.909406
1.13634
1.34779
1.53898
1.70711
1.85083
1.9699
2.06482
2.13667
2.1869
2.21718
2.22936
2.2253
0.392342
0.34108
0.280934
0.215688
0.150945
0.0935446
0.0506668
0.040234
0.119084
0.297319
0.517201
0.750564
0.982533
1.20369
1.40793
1.59146
1.75214
1.88909
2.00231
2.09245
2.16064
2.2083
2.23706
2.24865
2.24483
0.389946
0.341197
0.283531
0.220272
0.156484
0.0987541
0.0563219
0.0605275
0.171517
0.367274
0.593093
0.826169
1.05404
1.26892
1.46587
1.64191
1.79547
1.92601
2.03375
2.11947
2.18429
2.22963
2.25703
2.26815
2.26465
0.387347
0.341015
0.285791
0.224588
0.161988
0.104502
0.0655144
0.0921649
0.232639
0.440451
0.669434
0.900596
1.12352
1.3318
1.52148
1.69025
1.83701
1.96151
2.06414
2.14575
2.2075
2.25073
2.27696
2.28772
2.2846
0.384526
0.340521
0.2877
0.228624
0.167489
0.111286
0.0808487
0.13588
0.299921
0.515493
0.74528
0.973206
1.19054
1.39203
1.57452
1.73629
1.87659
1.99542
2.09331
2.17115
2.2301
2.27148
2.29672
2.30728
2.30466
0.381352
0.339583
0.289135
0.232285
0.173054
0.120157
0.105177
0.190292
0.371218
0.591121
0.819713
1.0433
1.25452
1.44908
1.62451
1.77952
1.9137
2.02723
2.12073
2.19514
2.2516
2.29138
2.31586
2.32643
2.32447
0.377844
0.338193
0.290062
0.235579
0.179098
0.133321
0.140923
0.253845
0.445979
0.667431
0.893221
1.11164
1.31646
1.50416
1.67281
1.8215
1.95005
2.0588
2.14844
2.21991
2.27435
2.31297
2.33708
2.348
2.34702
0.357026
0.359226
0.363887
0.370542
0.37868
0.387681
0.396844
0.405416
0.412633
0.417751
0.420072
0.41897
0.413902
0.404432
0.390252
0.340731
0.342697
0.346871
0.352851
0.3602
0.368389
0.376816
0.384835
0.39179
0.397041
0.399992
0.400114
0.396966
0.390232
0.379774
0.325894
0.327677
0.331474
0.336938
0.343699
0.351313
0.359271
0.367031
0.374044
0.379783
0.383778
0.385646
0.385147
0.382272
0.377403
0.312979
0.314656
0.318242
0.323437
0.329938
0.337378
0.345347
0.353414
0.361158
0.368214
0.374321
0.379399
0.38367
0.387832
0.393291
0.303095
0.304786
0.308422
0.313749
0.32053
0.328493
0.337344
0.346809
0.356676
0.366868
0.377529
0.389144
0.40266
0.419577
0.441921
0.298952
0.300871
0.305034
0.311233
0.319318
0.329148
0.340617
0.353702
0.368533
0.385463
0.405135
0.428507
0.456823
0.491451
0.533735
0.30771
0.310276
0.315895
0.324397
0.33575
0.349984
0.367218
0.387696
0.411817
0.440137
0.473316
0.512099
0.557198
0.609205
0.668501
0.347979
0.351826
0.360276
0.373119
0.390354
0.412048
0.438333
0.469406
0.505515
0.546929
0.5939
0.646619
0.705172
0.769509
0.839424
0.454766
0.460084
0.471735
0.48934
0.512758
0.541872
0.576576
0.616768
0.662341
0.71316
0.769054
0.829794
0.895083
0.964553
1.03777
0.655952
0.66191
0.674941
0.694561
0.720511
0.752516
0.790275
0.833453
0.881693
0.934608
0.991789
1.0528
1.1172
1.1845
1.25423
0.937623
0.943153
0.955244
0.973435
0.997456
1.02701
1.06177
1.10134
1.14533
1.1933
1.2448
1.29936
1.35654
1.41587
1.47691
1.25124
1.25572
1.26553
1.2803
1.2998
1.32381
1.35205
1.38421
1.41996
1.45895
1.50079
1.5451
1.59152
1.63965
1.68913
1.54392
1.54722
1.55446
1.56537
1.5798
1.59758
1.61854
1.64246
1.6691
1.69821
1.72954
1.76281
1.79773
1.83405
1.87147
1.77827
1.78054
1.78551
1.79302
1.80296
1.81524
1.82974
1.84632
1.86484
1.88515
1.90706
1.9304
1.95499
1.98065
2.0072
1.93646
1.93793
1.94113
1.94598
1.95242
1.96037
1.96979
1.98058
1.99266
2.00593
2.0203
2.03565
2.05188
2.06887
2.08649
2.01564
2.01652
2.01844
2.02137
2.02526
2.03007
2.03577
2.04232
2.04966
2.05775
2.06651
2.0759
2.08584
2.09627
2.10712
2.02177
2.02225
2.02331
2.02493
2.02708
2.02975
2.03291
2.03654
2.04062
2.0451
2.04997
2.05519
2.06071
2.0665
2.07252
1.96708
1.96731
1.96782
1.9686
1.96964
1.97094
1.97247
1.97422
1.97618
1.97834
1.98067
1.98315
1.98577
1.9885
1.99131
1.87126
1.87133
1.8715
1.87178
1.87214
1.8726
1.87313
1.87374
1.8744
1.87512
1.87588
1.87667
1.87747
1.87827
1.87906
1.75911
1.75909
1.75906
1.75902
1.75898
1.75893
1.75886
1.75876
1.75864
1.75848
1.75828
1.75802
1.7577
1.7573
1.75682
1.6504
1.65032
1.65016
1.64993
1.64964
1.64927
1.64883
1.64831
1.6477
1.647
1.6462
1.64529
1.64427
1.64313
1.64185
1.55174
1.55162
1.55139
1.55105
1.55062
1.55007
1.54942
1.54866
1.54777
1.54676
1.54562
1.54434
1.54292
1.54134
1.5396
1.45964
1.45951
1.45924
1.45886
1.45836
1.45774
1.457
1.45613
1.45512
1.45398
1.45269
1.45125
1.44966
1.4479
1.44597
1.36821
1.36808
1.36781
1.36743
1.36693
1.36631
1.36556
1.36469
1.36368
1.36253
1.36124
1.3598
1.3582
1.35644
1.35452
1.27357
1.27345
1.2732
1.27285
1.27238
1.27181
1.27111
1.2703
1.26936
1.26829
1.26709
1.26575
1.26427
1.26263
1.26084
1.17449
1.17439
1.17418
1.17387
1.17346
1.17296
1.17235
1.17164
1.17081
1.16987
1.16882
1.16764
1.16633
1.16489
1.16331
1.07172
1.07164
1.07146
1.0712
1.07087
1.07045
1.06994
1.06934
1.06865
1.06787
1.06698
1.06599
1.06489
1.06368
1.06234
0.96712
0.967054
0.966915
0.966714
0.966447
0.966113
0.96571
0.965235
0.964685
0.964057
0.963347
0.962551
0.961665
0.960684
0.959604
0.863082
0.863033
0.862931
0.862781
0.862581
0.86233
0.862027
0.861668
0.861251
0.860774
0.860232
0.859623
0.858943
0.858187
0.857352
0.76208
0.762047
0.761978
0.761874
0.761735
0.761559
0.761345
0.761091
0.760795
0.760454
0.760065
0.759626
0.759132
0.758581
0.757968
0.666344
0.666325
0.666283
0.666219
0.666132
0.666021
0.665885
0.665722
0.66553
0.665306
0.66505
0.664757
0.664426
0.664052
0.663633
0.577643
0.577635
0.577616
0.577585
0.577541
0.577484
0.577412
0.577323