/*--------------------------------*- C++ -*----------------------------------*\
| =========                 |                                                 |
| \\      /  F ield         | OpenFOAM: The Open Source CFD Toolbox           |
|  \\    /   O peration     | Version:  1.7.x                                 |
|   \\  /    A nd           | Web:      www.OpenFOAM.com                      |
|    \\/     M anipulation  |                                                 |
\*---------------------------------------------------------------------------*/
FoamFile
{
    version     2.0;
    format      ascii;
    class       volScalarField;
    location    "1750";
    object      nut;
}
// * * * * * * * * * * * * * * * * * * * * * * * * * * * * * * * * * * * * * //

dimensions      [0 2 -1 0 0 0 0];

internalField   nonuniform List<scalar> 
11750
(
7.47144e-05
2.2729e-05
5.09948e-06
1.494e-06
2.3186e-06
1.08273e-05
3.08953e-05
4.55216e-05
5.06915e-05
5.20849e-05
5.23998e-05
5.24437e-05
5.23871e-05
5.21834e-05
5.15514e-05
4.96405e-05
4.42918e-05
3.2139e-05
1.52861e-05
4.66794e-06
1.621e-06
1.87311e-06
6.1161e-06
2.37783e-05
7.34297e-05
7.92918e-05
4.32744e-05
1.44642e-05
3.27497e-06
1.61858e-06
5.48324e-06
2.02255e-05
3.84127e-05
4.80487e-05
5.14246e-05
5.23717e-05
5.25594e-05
5.24273e-05
5.18814e-05
5.03117e-05
4.61963e-05
3.6949e-05
2.19344e-05
8.36286e-06
2.54752e-06
1.77732e-06
4.91337e-06
1.80798e-05
4.6451e-05
7.71904e-05
7.75179e-05
6.59692e-05
3.46878e-05
9.85785e-06
2.3468e-06
3.11571e-06
1.30926e-05
3.15646e-05
4.47225e-05
5.02772e-05
5.20645e-05
5.24727e-05
5.22396e-05
5.12307e-05
4.85298e-05
4.22099e-05
3.01854e-05
1.48921e-05
4.81645e-06
2.07097e-06
4.19505e-06
1.61407e-05
4.43163e-05
7.23083e-05
7.49675e-05
7.59322e-05
8.63255e-05
6.24219e-05
2.59981e-05
6.00936e-06
2.42863e-06
7.95161e-06
2.4851e-05
4.09056e-05
4.87635e-05
5.15449e-05
5.22368e-05
5.18838e-05
5.03243e-05
4.63739e-05
3.78839e-05
2.3743e-05
9.4746e-06
3.06226e-06
3.49408e-06
1.32892e-05
4.16749e-05
7.82893e-05
9.5368e-05
7.32213e-05
7.51803e-05
0.000101973
8.89562e-05
5.0679e-05
1.58195e-05
3.56938e-06
4.75231e-06
1.82016e-05
3.64952e-05
4.69031e-05
5.08469e-05
5.1883e-05
5.1396e-05
4.9207e-05
4.38651e-05
3.30893e-05
1.74047e-05
5.70095e-06
3.14545e-06
9.37305e-06
3.42568e-05
7.59716e-05
0.000109387
0.000112789
7.24105e-05
7.49288e-05
0.000113156
0.00011051
7.71648e-05
3.31396e-05
7.7283e-06
3.53821e-06
1.22862e-05
3.13969e-05
4.46482e-05
4.99743e-05
5.14238e-05
5.07879e-05
4.78713e-05
4.09064e-05
2.76474e-05
1.16505e-05
3.94449e-06
5.91021e-06
2.37027e-05
6.47168e-05
0.000109353
0.000134169
0.00012502
7.21041e-05
7.48947e-05
0.000120973
0.000127126
0.000100679
5.50731e-05
1.6492e-05
4.11611e-06
7.98042e-06
2.57479e-05
4.19309e-05
4.89169e-05
5.08649e-05
5.00599e-05
4.6277e-05
3.73578e-05
2.16909e-05
7.45257e-06
4.22893e-06
1.35576e-05
4.71046e-05
9.7085e-05
0.000137721
0.000153123
0.000133473
7.19996e-05
7.49419e-05
0.000126477
0.000139809
0.000120093
7.73332e-05
3.00385e-05
6.71959e-06
5.55465e-06
2.00383e-05
3.87088e-05
4.76586e-05
5.02088e-05
4.92045e-05
4.43648e-05
3.31324e-05
1.58829e-05
5.27062e-06
6.96841e-06
2.79734e-05
7.52748e-05
0.000126496
0.000160803
0.000167567
0.000139402
7.19674e-05
7.50159e-05
0.000130436
0.000149553
0.000135827
9.73507e-05
4.66816e-05
1.19051e-05
4.73228e-06
1.4967e-05
3.5014e-05
4.61854e-05
4.94556e-05
4.82087e-05
4.2075e-05
2.83148e-05
1.11331e-05
4.92536e-06
1.32961e-05
4.83817e-05
0.000103342
0.000151668
0.000179421
0.000178691
0.000143675
7.19613e-05
7.50961e-05
0.000133355
0.000157135
0.00014857
0.000114461
6.41061e-05
1.98658e-05
5.20714e-06
1.10379e-05
3.0975e-05
4.44924e-05
4.86051e-05
4.70583e-05
3.93703e-05
2.32306e-05
7.95847e-06
6.31366e-06
2.40653e-05
7.17957e-05
0.00012879
0.000172824
0.000194498
0.000187391
0.00014685
7.19654e-05
7.51743e-05
0.00013555
0.00016312
0.000158948
0.000128881
8.05935e-05
3.0119e-05
6.90193e-06
8.36613e-06
2.68103e-05
4.25884e-05
4.76592e-05
4.57421e-05
3.62606e-05
1.83886e-05
6.32221e-06
9.73155e-06
3.88984e-05
9.52272e-05
0.000151015
0.000190552
0.000206809
0.000194307
0.000149278
7.19739e-05
7.52479e-05
0.000137248
0.000167904
0.000167468
0.000141029
9.53443e-05
4.17301e-05
9.85967e-06
6.79783e-06
2.27855e-05
4.04991e-05
4.66233e-05
4.4256e-05
3.28206e-05
1.42721e-05
5.96509e-06
1.55674e-05
5.63203e-05
0.000116944
0.000170195
0.000205454
0.000216958
0.000199889
0.000151183
7.19847e-05
7.53162e-05
0.000138593
0.000171782
0.000174524
0.000151295
0.00010821
5.37147e-05
1.40605e-05
6.10231e-06
1.91413e-05
3.82665e-05
4.55068e-05
4.26057e-05
2.91907e-05
1.11396e-05
6.71291e-06
2.38905e-05
7.45791e-05
0.000136356
0.0001867
0.000218046
0.000225406
0.000204459
0.00015271
7.19967e-05
7.53792e-05
0.000139681
0.000174965
0.000180413
0.000160006
0.000119344
6.53147e-05
1.93418e-05
6.08692e-06
1.60325e-05
3.59449e-05
4.43232e-05
4.08082e-05
2.55571e-05
9.00179e-06
8.54094e-06
3.43118e-05
9.23183e-05
0.000153467
0.000200918
0.000228747
0.0002325
0.000208246
0.000153957
7.20094e-05
7.54373e-05
0.000140577
0.000177609
0.000185367
0.000167431
0.00012898
7.60763e-05
2.5424e-05
6.62391e-06
1.35116e-05
3.35949e-05
4.30891e-05
3.88907e-05
2.21122e-05
7.72756e-06
1.14842e-05
4.61259e-05
0.000108775
0.000168487
0.000213198
0.000237895
0.000238505
0.000211418
0.00015499
7.20224e-05
7.54907e-05
0.000141324
0.000179828
0.000189564
0.000173792
0.00013734
8.58021e-05
3.19805e-05
7.63063e-06
1.15506e-05
3.12762e-05
4.1823e-05
3.68887e-05
1.90116e-05
7.15407e-06
1.55331e-05
5.85547e-05
0.000123663
0.000181663
0.000223841
0.000245757
0.000243624
0.0002141
0.000155855
7.20353e-05
7.55402e-05
0.000141954
0.000181704
0.000193141
0.000179263
0.000144616
9.44619e-05
3.8701e-05
9.04134e-06
1.00805e-05
2.90424e-05
4.05436e-05
3.48406e-05
1.63457e-05
7.14708e-06
2.05835e-05
7.09356e-05
0.000136973
0.00019323
0.000233099
0.000252549
0.000248016
0.000216383
0.000156588
7.20478e-05
7.55865e-05
0.000142489
0.000183302
0.000196206
0.000183985
0.000150961
0.000102114
4.533e-05
1.0788e-05
9.01928e-06
2.6938e-05
3.92681e-05
3.27821e-05
1.41379e-05
7.61429e-06
2.64458e-05
8.28038e-05
0.000148821
0.000203399
0.00024118
0.000258441
0.000251804
0.00021834
0.000157212
7.20593e-05
7.56307e-05
0.000142943
0.000184666
0.000198838
0.000188064
0.000156495
0.000108855
5.16776e-05
1.27919e-05
8.28801e-06
2.4996e-05
3.80104e-05
3.07379e-05
1.2361e-05
8.49635e-06
3.28854e-05
9.38926e-05
0.000159363
0.000212362
0.000248258
0.000263574
0.000255084
0.000220022
0.000157743
7.20692e-05
7.56751e-05
0.000143326
0.000185831
0.000201098
0.000191584
0.000161295
0.000114755
5.76119e-05
1.49793e-05
7.81546e-06
2.32364e-05
3.67786e-05
2.87136e-05
1.09595e-05
9.75433e-06
3.96689e-05
0.000104093
0.000168762
0.000220285
0.000254481
0.000268062
0.000257931
0.000221469
0.000158192
7.20764e-05
7.57227e-05
0.000143641
0.000186816
0.000203025
0.0001946
0.00016543
0.000119867
6.30283e-05
1.72735e-05
7.54288e-06
2.16685e-05
3.55726e-05
2.66881e-05
9.87115e-06
1.13628e-05
4.65998e-05
0.000113408
0.000177173
0.000227319
0.000259973
0.000271995
0.000260403
0.000222705
0.000158562
7.20792e-05
7.57781e-05
0.000143884
0.000187633
0.000204642
0.000197145
0.000168935
0.000124229
6.78464e-05
1.95839e-05
7.42331e-06
2.02945e-05
3.43796e-05
2.46091e-05
9.04234e-06
1.33095e-05
5.35393e-05
0.000121908
0.000184743
0.000233602
0.000264842
0.000275449
0.000262542
0.000223746
0.000158851
7.2075e-05
7.58478e-05
0.000144049
0.000188284
0.000205956
0.000199227
0.000171819
0.000127847
7.19924e-05
2.18147e-05
7.41738e-06
1.91121e-05
3.3168e-05
2.23967e-05
8.4415e-06
1.56002e-05
6.04128e-05
0.000129711
0.000191618
0.000239258
0.000269183
0.000278484
0.000264376
0.000224594
0.000159048
7.20603e-05
7.59401e-05
0.000144121
0.000188759
0.000206956
0.000200828
0.000174058
0.000130694
7.53878e-05
2.38663e-05
7.49052e-06
1.81161e-05
3.18749e-05
1.99672e-05
8.0679e-06
1.82628e-05
6.72072e-05
0.000136957
0.000197939
0.000244403
0.000273078
0.000281148
0.000265921
0.000225242
0.000159139
7.20303e-05
7.60649e-05
0.000144081
0.000189042
0.000207616
0.00020191
0.0001756
0.00013271
7.79456e-05
2.56369e-05
7.61132e-06
1.72999e-05
3.03846e-05
1.72918e-05
7.95539e-06
2.13495e-05
7.39592e-05
0.000143798
0.000203842
0.000249147
0.0002766
0.000283478
0.000267183
0.000225676
0.000159103
7.19795e-05
7.62334e-05
0.000143902
0.000189101
0.000207888
0.000202403
0.000176362
0.000133806
7.95718e-05
2.70283e-05
7.75125e-06
1.66539e-05
2.8501e-05
1.44832e-05
8.16866e-06
2.49319e-05
8.07389e-05
0.000150384
0.000209455
0.000253585
0.000279812
0.000285504
0.000268162
0.000225876
0.000158919
7.19015e-05
7.64571e-05
0.000143549
0.000188889
0.000207695
0.000202203
0.000176227
0.00013387
8.01753e-05
2.79555e-05
7.88582e-06
1.61615e-05
2.59529e-05
1.18342e-05
8.79242e-06
2.90881e-05
8.76273e-05
0.000156848
0.000214888
0.000257802
0.000282769
0.00028725
0.000268856
0.000225821
0.000158563
7.17896e-05
7.67461e-05
0.000142961
0.000188312
0.000206902
0.000201153
0.000175038
0.000132774
7.96838e-05
2.83597e-05
7.99693e-06
1.57871e-05
2.25426e-05
9.70388e-06
9.91588e-06
3.38782e-05
9.46879e-05
0.000163287
0.000220223
0.00026186
0.000285511
0.000288732
0.000269253
0.000225477
0.000157995
7.16371e-05
7.7098e-05
0.000142062
0.000187185
0.000205275
0.000199017
0.000172601
0.000130398
7.80731e-05
2.82254e-05
8.0754e-06
1.54551e-05
1.84822e-05
8.31959e-06
1.1612e-05
3.93109e-05
0.000101933
0.000169737
0.000225487
0.000265781
0.00028805
0.00028994
0.000269306
0.000224753
0.000157155
7.1429e-05
7.75628e-05
0.000139846
0.000184878
0.000202319
0.000195438
0.000168703
0.000126673
7.54023e-05
2.75931e-05
8.12265e-06
1.50329e-05
1.45106e-05
7.7047e-06
1.39134e-05
4.53192e-05
0.000109306
0.000176165
0.000230643
0.000269513
0.000290292
0.000290683
0.000268607
0.000222799
0.000154489
7.12563e-05
0.000350731
0.000350106
0.000349145
0.000347798
0.000345984
0.000343631
0.000340653
0.00033694
0.000332323
0.000326385
0.000317919
0.000305674
0.000292292
0.000276509
0.00026007
0.000984826
0.000975431
0.000955774
0.000928352
0.000895389
0.000859076
0.00082148
0.000784782
0.000751339
0.000720654
0.000679758
0.000605294
0.000491976
0.000369833
0.000247168
0.00105385
0.00104183
0.00101745
0.000984848
0.000947837
0.000909423
0.000871074
0.000832036
0.000788814
0.000734243
0.000661181
0.000569485
0.00046147
0.00034463
0.000227965
0.00111156
0.00109677
0.00106753
0.00102897
0.000984817
0.000937143
0.000885938
0.000829131
0.000762719
0.000686327
0.000602523
0.000510919
0.000410962
0.000306569
0.000208671
0.00114517
0.00112799
0.00109408
0.001049
0.000996321
0.000937685
0.000872361
0.000799485
0.000721677
0.000640857
0.000556215
0.000466469
0.000372297
0.000278692
0.00019719
0.00114211
0.00112378
0.00108717
0.00103721
0.000976805
0.000908484
0.000835525
0.000760834
0.000684688
0.000605738
0.000522792
0.000435763
0.000346797
0.000261903
0.000192355
0.00108209
0.00106422
0.00102831
0.000980079
0.000924172
0.000863532
0.000799198
0.000731194
0.00065918
0.000582735
0.000501791
0.000417342
0.000332505
0.000253852
0.000192075
0.00102051
0.00100543
0.000975117
0.00093403
0.000885389
0.000831265
0.000772525
0.000709197
0.000640948
0.000567528
0.000489241
0.000407585
0.000326178
0.000251832
0.000194686
0.000973718
0.000960479
0.000933712
0.00089718
0.000853558
0.000804501
0.000750608
0.000691739
0.000627473
0.000557571
0.000482448
0.000403776
0.000325332
0.000253921
0.00019921
0.000935621
0.000923865
0.000899973
0.000867157
0.000827678
0.00078289
0.00073321
0.000678396
0.00061797
0.000551656
0.000479848
0.000404185
0.000328352
0.000258932
0.000205165
0.000904188
0.000893653
0.000872141
0.000842429
0.000806455
0.000765347
0.000719392
0.000668281
0.000611492
0.0005487
0.000480214
0.000407532
0.000334086
0.000266079
0.000212306
0.000877854
0.000868353
0.000848872
0.000821827
0.000788897
0.000751029
0.000708412
0.000660693
0.000607316
0.000547906
0.00048267
0.00041291
0.000341723
0.000274817
0.000220489
0.000855584
0.000846971
0.000829244
0.000804524
0.000774273
0.000739292
0.000699691
0.000655084
0.000604892
0.000548694
0.000486591
0.000419676
0.000350677
0.000284745
0.000229611
0.000836621
0.000828778
0.000812581
0.000789908
0.000762037
0.000729646
0.000692784
0.000651036
0.000603809
0.000550639
0.000491529
0.000427369
0.000360517
0.00029555
0.000239565
0.000820397
0.000813225
0.000798374
0.000777515
0.000751771
0.000721718
0.000687351
0.000648234
0.000603761
0.000553433
0.000497165
0.00043566
0.000370928
0.000306977
0.000250239
0.000806471
0.000799889
0.000786229
0.000766985
0.000743152
0.000715218
0.00068313
0.000646436
0.000604519
0.000556851
0.000503271
0.000444314
0.000381671
0.00031882
0.000261508
0.000794498
0.000788438
0.000775836
0.000758038
0.000735929
0.00070992
0.000679918
0.000645458
0.000605912
0.00056073
0.000509684
0.000453162
0.000392573
0.000330906
0.000273241
0.000784203
0.000778605
0.000766947
0.000750449
0.000729899
0.000705643
0.000677554
0.000645154
0.000607809
0.000564947
0.000516286
0.000462085
0.000403505
0.000343099
0.000285312
0.00077536
0.000770175
0.000759363
0.000744036
0.0007249
0.000702244
0.000675911
0.000645413
0.000610109
0.000569412
0.00052299
0.000470995
0.000414373
0.000355288
0.000297602
0.000767786
0.00076297
0.000752918
0.000738648
0.000720797
0.000699603
0.000674885
0.000646142
0.000612732
0.000574054
0.000529735
0.000479834
0.000425109
0.000367389
0.000310007
0.000761328
0.000756843
0.000747475
0.000734162
0.000717479
0.000697623
0.00067439
0.00064727
0.000615618
0.000578822
0.000536476
0.000488559
0.000435668
0.000379339
0.000322437
0.000755856
0.000751668
0.000742917
0.000730471
0.000714853
0.000696223
0.000674355
0.000648736
0.000618716
0.000583676
0.000543181
0.000497141
0.000446017
0.000391089
0.000334816
0.000751258
0.000747338
0.000739145
0.000727486
0.000712839
0.000695331
0.000674721
0.00065049
0.000621986
0.000588584
0.000549825
0.000505561
0.000456134
0.000402608
0.000347083
0.000747438
0.00074376
0.000736072
0.000725129
0.000711367
0.000694889
0.000675437
0.000652489
0.000625395
0.000593522
0.000556391
0.000513806
0.000466007
0.000413872
0.00035919
0.000744314
0.000740855
0.000733624
0.000723331
0.000710378
0.000694843
0.000676458
0.000654699
0.000628913
0.000598468
0.000562866
0.000521869
0.000475629
0.000424865
0.000371099
0.00074181
0.000738549
0.000731734
0.000722033
0.000709818
0.000695149
0.000677747
0.000657087
0.000632519
0.000603407
0.00056924
0.000529744
0.000484997
0.00043558
0.000382782
0.000739862
0.000736781
0.000730343
0.00072118
0.000709641
0.000695765
0.000679269
0.000659627
0.000636192
0.000608325
0.000575507
0.000537431
0.000494111
0.00044601
0.000394217
0.00073841
0.000735492
0.000729398
0.000720726
0.000709803
0.000696655
0.000680994
0.000662295
0.000639913
0.000613212
0.000581661
0.000544929
0.000502973
0.000456155
0.000405392
0.000737403
0.000734633
0.000728852
0.000720627
0.000710268
0.000697788
0.000682896
0.000665069
0.000643669
0.000618057
0.000587699
0.000552239
0.000511587
0.000466017
0.000416294
0.000736791
0.000734157
0.00072866
0.000720844
0.000711
0.000699133
0.00068495
0.000667931
0.000647444
0.000622853
0.000593617
0.000559361
0.000519956
0.000475597
0.00042692
0.000736533
0.000734023
0.000728785
0.000721342
0.000711969
0.000700664
0.000687134
0.000670864
0.000651228
0.000627593
0.000599413
0.000566299
0.000528085
0.0004849
0.000437267
0.000736589
0.000734191
0.000729191
0.000722089
0.000713146
0.000702356
0.000689428
0.000673853
0.000655009
0.00063227
0.000605086
0.000573055
0.000535979
0.000493931
0.000447334
0.000736923
0.000734629
0.000729845
0.000723054
0.000714505
0.000704189
0.000691815
0.000676883
0.000658778
0.000636878
0.000610634
0.00057963
0.000543644
0.000502695
0.000457124
0.000737502
0.000735303
0.000730718
0.000724211
0.000716023
0.000706141
0.000694278
0.000679942
0.000662526
0.000641415
0.000616057
0.000586029
0.000551084
0.0005112
0.000466639
0.000738298
0.000736185
0.000731782
0.000725536
0.000717678
0.000708194
0.000696803
0.000683019
0.000666246
0.000645874
0.000621354
0.000592253
0.000558306
0.00051945
0.000475885
0.000739281
0.000737248
0.000733013
0.000727005
0.00071945
0.000710332
0.000699375
0.000686103
0.000669931
0.000650254
0.000626525
0.000598307
0.000565314
0.000527453
0.000484865
0.000740428
0.000738469
0.000734388
0.000728599
0.000721322
0.000712538
0.000701982
0.000689186
0.000673574
0.000654551
0.000631571
0.000604192
0.000572115
0.000535216
0.000493586
0.000741716
0.000739825
0.000735886
0.000730299
0.000723275
0.000714801
0.000704614
0.000692259
0.000677171
0.000658762
0.000636491
0.000609913
0.000578714
0.000542745
0.000502054
0.000743124
0.000741297
0.000737488
0.000732086
0.000725296
0.000717105
0.000707259
0.000695314
0.000680716
0.000662887
0.000641288
0.000615472
0.000585116
0.000550048
0.000510275
0.000744633
0.000742864
0.000739176
0.000733945
0.000727371
0.000719441
0.00070991
0.000698346
0.000684207
0.000666923
0.000645962
0.000620875
0.000591328
0.00055713
0.000518257
0.000746226
0.000744512
0.000740936
0.000735863
0.000729487
0.000721797
0.000712558
0.000701348
0.000687639
0.000670871
0.000650515
0.000626124
0.000597355
0.000564001
0.000526006
0.000747887
0.000746224
0.000742753
0.000737826
0.000731633
0.000724165
0.000715196
0.000704317
0.000691011
0.00067473
0.00065495
0.000631224
0.000603204
0.000570667
0.000533532
0.000749603
0.000747987
0.000744613
0.000739822
0.000733798
0.000726536
0.000717818
0.000707247
0.000694321
0.0006785
0.000659269
0.00063618
0.000608882
0.000577137
0.000540843
0.000751359
0.000749788
0.000746506
0.000741842
0.000735975
0.000728904
0.000720418
0.000710136
0.000697567
0.000682183
0.000663475
0.000640998
0.000614395
0.00058342
0.000547948
0.000753146
0.000751616
0.00074842
0.000743874
0.000738154
0.00073126
0.000722992
0.00071298
0.000700748
0.000685778
0.00066757
0.000645681
0.000619751
0.000589523
0.000554856
0.000754951
0.000753462
0.000750346
0.000745911
0.000740327
0.000733598
0.000725533
0.000715775
0.000703861
0.000689285
0.000671555
0.000650231
0.000624952
0.000595452
0.000561574
0.000756765
0.000755313
0.000752272
0.00074794
0.000742483
0.000735907
0.000728029
0.000718509
0.000706894
0.000692693
0.00067542
0.00065464
0.00062999
0.000601199
0.000568095
0.00075858
0.000757162
0.00075419
0.000749952
0.00074461
0.000738172
0.000730467
0.000721165
0.00070983
0.000695981
0.000679142
0.000658882
0.000634839
0.000606736
0.000574389
0.000760371
0.000758983
0.000756069
0.00075191
0.000746664
0.000740342
0.000732784
0.000723673
0.000712588
0.00069906
0.000682624
0.000662853
0.000639387
0.000611943
0.00058033
0.000762119
0.000760755
0.000757891
0.0007538
0.000748636
0.000742415
0.000734985
0.000726042
0.00071518
0.000701944
0.000685876
0.000666558
0.00064363
0.000616805
0.000585883
0.000102255
0.000140199
0.000181241
0.000197111
0.000189219
0.000162111
0.000120531
7.10005e-05
2.62803e-05
8.14895e-06
1.40722e-05
1.06849e-05
7.8523e-06
1.75251e-05
5.3175e-05
0.000118176
0.000183683
0.000236492
0.000273514
0.000292335
0.000290691
0.0002666
0.000219437
0.000155102
9.8996e-05
0.000120343
0.000142877
0.000177998
0.000190841
0.00018116
0.000153423
0.000112498
6.53123e-05
2.44319e-05
8.16351e-06
1.22576e-05
8.30912e-06
9.00676e-06
2.25358e-05
6.24779e-05
0.000127925
0.00019169
0.000242478
0.000277306
0.000293812
0.00028979
0.000263586
0.000216564
0.000163241
0.000142171
0.000131524
0.000147054
0.000175826
0.00018451
0.000172343
0.000143686
0.00010351
5.9039e-05
2.23173e-05
8.17669e-06
1.00159e-05
7.47389e-06
1.12595e-05
2.90007e-05
7.29757e-05
0.000138246
0.00019991
0.000248365
0.000280708
0.000294634
0.000288095
0.000260334
0.000216748
0.000181695
0.000191945
0.000139515
0.00015172
0.000174246
0.000178401
0.000163536
0.000133892
9.45521e-05
5.29086e-05
2.02322e-05
8.17879e-06
8.30984e-06
7.85432e-06
1.46108e-05
3.67493e-05
8.42307e-05
0.000148747
0.000208035
0.000253922
0.000283585
0.000294807
0.000285959
0.000258168
0.000222815
0.000210771
0.000242687
0.000146374
0.00015596
0.000172654
0.000172534
0.000155173
0.000124693
8.62888e-05
4.73941e-05
1.83804e-05
8.14979e-06
7.54041e-06
9.14966e-06
1.89464e-05
4.54322e-05
9.5736e-05
0.000159038
0.000215786
0.000258982
0.000285897
0.000294523
0.000284112
0.000258942
0.000236887
0.00024849
0.000291436
0.000152571
0.000159329
0.000170821
0.000166992
0.000147535
0.000116463
7.90589e-05
4.27024e-05
1.68551e-05
8.10161e-06
7.56845e-06
1.11432e-05
2.40562e-05
5.46289e-05
0.000107038
0.000168811
0.000222975
0.000263481
0.000287752
0.000294211
0.000283663
0.000264615
0.000259761
0.000291877
0.000338175
0.00015819
0.000161818
0.000168807
0.000161909
0.000140795
0.000109369
7.29698e-05
3.88621e-05
1.56699e-05
8.09382e-06
8.15753e-06
1.36549e-05
2.96836e-05
6.39462e-05
0.000117806
0.000177879
0.000229526
0.000267471
0.000289406
0.000294519
0.000285938
0.000276734
0.000290873
0.000338224
0.000384029
0.000163325
0.000163629
0.000166767
0.000157387
0.000135014
0.000103426
6.79821e-05
3.58047e-05
1.47939e-05
8.18888e-06
9.12043e-06
1.65195e-05
3.55779e-05
7.30747e-05
0.000127842
0.000186172
0.00023546
0.00027111
0.000291246
0.000296251
0.000292238
0.000296103
0.000328726
0.000385816
0.000430011
0.000168169
0.000165035
0.000164856
0.000153477
0.000130169
9.85563e-05
6.39804e-05
3.34198e-05
1.41772e-05
8.41068e-06
1.03209e-05
1.95907e-05
4.15304e-05
8.18088e-05
0.00013707
0.000193709
0.000240882
0.000274636
0.000293751
0.000300281
0.000303641
0.000322728
0.000371483
0.000433942
0.000476672
0.000172972
0.000166297
0.000163192
0.000150181
0.000126187
9.46364e-05
6.08231e-05
3.15906e-05
1.37674e-05
8.74622e-06
1.1659e-05
2.27501e-05
4.7391e-05
9.00384e-05
0.000145501
0.000200578
0.000245954
0.000278347
0.000297464
0.000307469
0.000320862
0.000355953
0.000417491
0.000482514
0.000524238
0.000177969
0.000167624
0.000161852
0.000147472
0.000122971
9.15329e-05
5.83712e-05
3.0211e-05
1.35179e-05
9.1659e-06
1.30626e-05
2.59118e-05
5.30675e-05
9.77296e-05
0.000153207
0.000206912
0.000250882
0.000282589
0.000302971
0.000318602
0.000344203
0.00039471
0.000465567
0.000531659
0.000572792
0.000183359
0.000169182
0.00016088
0.000145304
0.000120419
8.91176e-05
5.65006e-05
2.91913e-05
1.33903e-05
9.63881e-06
1.44821e-05
2.90211e-05
5.85163e-05
0.000104902
0.000160293
0.000212869
0.000255901
0.000287749
0.000310883
0.000334333
0.000373552
0.000437802
0.000515012
0.000581493
0.000622357
0.000189298
0.000171101
0.000160301
0.000143627
0.000118436
8.72763e-05
5.51059e-05
2.84589e-05
1.33544e-05
1.01396e-05
1.58858e-05
3.20501e-05
6.37306e-05
0.000111608
0.00016689
0.000218629
0.000261279
0.000294256
0.000321826
0.000355138
0.000408449
0.000484152
0.000565513
0.000632071
0.000672771
0.000195901
0.000173488
0.000160136
0.000142392
0.000116936
8.59112e-05
5.41003e-05
2.79562e-05
1.33875e-05
1.06502e-05
1.72567e-05
3.49917e-05
6.87285e-05
0.000117923
0.000173137
0.000224391
0.000267318
0.000302593
0.000336418
0.000381268
0.000448231
0.000532986
0.000616951
0.000683178
0.000723949
0.000203239
0.000176434
0.000160403
0.00014156
0.000115846
8.49405e-05
5.3413e-05
2.76381e-05
1.34727e-05
1.11589e-05
1.85889e-05
3.78538e-05
7.35447e-05
0.000123933
0.000179184
0.000230375
0.000274371
0.000313298
0.000355235
0.000412734
0.00049216
0.000583718
0.000669029
0.000734845
0.000775957
0.00021134
0.000180013
0.000161125
0.000141101
0.000115107
8.4297e-05
5.29871e-05
2.74698e-05
1.35978e-05
1.16597e-05
1.98843e-05
4.06549e-05
7.8224e-05
0.000129734
0.000185194
0.000236837
0.000282849
0.000326964
0.000378752
0.000449304
0.000539493
0.000635888
0.000721551
0.000787185
0.000828823
0.000220192
0.000184287
0.00016233
0.000140996
0.000114672
8.39263e-05
5.27771e-05
2.74242e-05
1.37542e-05
1.21503e-05
2.11507e-05
4.34206e-05
8.28181e-05
0.000135428
0.00019135
0.00024408
0.000293241
0.000344213
0.000407301
0.000490594
0.000589577
0.000688786
0.000774678
0.000840273
0.000882563
0.000229752
0.000189303
0.00016405
0.000141237
0.000114507
8.37848e-05
5.27463e-05
2.74802e-05
1.39358e-05
1.26313e-05
2.23997e-05
4.61812e-05
8.7384e-05
0.000141133
0.000197868
0.000252472
0.000306113
0.00036565
0.000440996
0.000535999
0.000641528
0.000742471
0.000828503
0.000894165
0.000937191
0.000239944
0.000195086
0.000166324
0.000141827
0.000114585
8.38386e-05
5.28659e-05
2.76216e-05
1.41387e-05
1.31054e-05
2.3646e-05
4.89707e-05
9.19859e-05
0.000146985
0.000205008
0.000262459
0.000322093
0.000391787
0.000479685
0.000584817
0.00069482
0.000796986
0.000883098
0.000948901
0.000992712
0.000250675
0.000201642
0.000169189
0.000142777
0.000114894
8.40618e-05
5.31127e-05
2.78358e-05
1.43604e-05
1.35766e-05
2.49065e-05
5.18266e-05
9.66977e-05
0.000153148
0.000213096
0.000274579
0.000341852
0.000422991
0.000523023
0.000636062
0.000749369
0.000852366
0.000938516
0.00100451
0.00104913
0.000261843
0.000208954
0.000172682
0.000144107
0.000115426
8.44356e-05
5.34688e-05
2.81131e-05
1.45996e-05
1.40499e-05
2.62001e-05
5.47911e-05
0.00010161
0.000159835
0.000222537
0.000289457
0.00036602
0.000459344
0.000570272
0.000689384
0.000805107
0.000908645
0.000994799
0.00106102
0.00110645
0.00027334
0.000216985
0.000176834
0.000145845
0.000116184
8.49479e-05
5.39204e-05
2.84461e-05
1.48555e-05
1.45314e-05
2.75479e-05
5.79134e-05
0.000106839
0.000167316
0.000233836
0.000307784
0.000395114
0.000500685
0.000620667
0.000744536
0.000861996
0.000965849
0.00105198
0.00111844
0.00116469
0.000285064
0.000225675
0.000181668
0.000148024
0.000117179
8.55923e-05
5.44575e-05
2.88293e-05
1.51284e-05
1.50276e-05
2.89742e-05
6.12542e-05
0.000112539
0.00017595
0.000247606
0.000330273
0.000429447
0.000546404
0.00067384
0.000801341
0.000920007
0.001024
0.00111009
0.00117681
0.00122385
0.000296923
0.000234952
0.000187193
0.000150678
0.000118428
8.6368e-05
5.50733e-05
2.92585e-05
1.54189e-05
1.55462e-05
3.05078e-05
6.48927e-05
0.000118921
0.000186198
0.000264549
0.000357552
0.000469025
0.000595971
0.000729455
0.00085967
0.000979124
0.00108312
0.00116914
0.00123612
0.00128395
0.000308834
0.000244733
0.000193406
0.000153845
0.000119954
8.72795e-05
5.5764e-05
2.97312e-05
1.5728e-05
1.60961e-05
3.21845e-05
6.89369e-05
0.000126279
0.000198646
0.000285437
0.000390133
0.000513442
0.000648984
0.000787242
0.000919425
0.00103934
0.00114323
0.00122917
0.00129641
0.00134499
0.000320729
0.000254928
0.000200287
0.000157557
0.000121787
8.83363e-05
5.65285e-05
3.02457e-05
1.60573e-05
1.66879e-05
3.40515e-05
7.35405e-05
0.000135013
0.000214003
0.00031101
0.000428205
0.000562328
0.000705055
0.000846986
0.000980532
0.00110064
0.00120434
0.00129018
0.00135768
0.00140701
0.000332552
0.000265449
0.000207802
0.000161844
0.00012396
8.95532e-05
5.73689e-05
3.08017e-05
1.6409e-05
1.73353e-05
3.6174e-05
7.89252e-05
0.000145662
0.000233094
0.000341946
0.000471591
0.000615299
0.000763842
0.000908518
0.00104294
0.00116303
0.00126648
0.00135221
0.00141996
0.00147001
0.000344255
0.000276213
0.000215902
0.000166726
0.000126511
9.09498e-05
5.82898e-05
3.13996e-05
1.67858e-05
1.80563e-05
3.8647e-05
8.54132e-05
0.000158926
0.000256784
0.000378655
0.000520016
0.000671939
0.000825056
0.000971702
0.0011066
0.00122651
0.00132965
0.00141526
0.00148327
0.00153402
0.000355804
0.00028714
0.000224527
0.000172215
0.000129476
9.25506e-05
5.9299e-05
3.20414e-05
1.71912e-05
1.88767e-05
4.16129e-05
9.34683e-05
0.000175668
0.000285903
0.000421214
0.000573151
0.000731852
0.000888457
0.00103643
0.0011715
0.00129109
0.00139389
0.00147938
0.00154763
0.00159907
0.000367168
0.000298163
0.000233612
0.000178308
0.000132895
9.43846e-05
6.04074e-05
3.27299e-05
1.76302e-05
1.98349e-05
4.52914e-05
0.000103743
0.000196898
0.00032115
0.000469389
0.000630567
0.000794682
0.000953848
0.00110263
0.00123761
0.00135679
0.0014592
0.00154457
0.00161307
0.00166518
0.000378327
0.000309222
0.000243086
0.000184992
0.000136801
9.6485e-05
6.16295e-05
3.34694e-05
1.81098e-05
2.09918e-05
5.00231e-05
0.000117119
0.000223651
0.000362841
0.000522911
0.000691822
0.000860124
0.00102107
0.00117024
0.00130492
0.00142361
0.00152563
0.00161088
0.00167963
0.0017324
0.000389265
0.000320265
0.000252878
0.00019224
0.000141226
9.88886e-05
6.29834e-05
3.4266e-05
1.86406e-05
2.24473e-05
5.63352e-05
0.000134729
0.000256911
0.000410904
0.00058136
0.000756503
0.00092792
0.00109
0.00123921
0.00137344
0.00149158
0.0015932
0.00167833
0.00174734
0.00180077
0.000399969
0.00033125
0.00026292
0.000200016
0.00014619
0.000101635
6.44912e-05
3.51277e-05
1.92397e-05
2.43719e-05
6.5027e-05
0.000157902
0.000297348
0.000465018
0.000644246
0.000824239
0.000997857
0.00116055
0.00130952
0.00144317
0.00156072
0.00166193
0.00174697
0.00181624
0.00187034
0.000410432
0.000342141
0.000273147
0.000208271
0.000151708
0.000104763
6.61794e-05
3.6065e-05
1.99362e-05
2.70614e-05
7.7262e-05
0.00018799
0.00034515
0.000524768
0.000711087
0.000894709
0.00106977
0.00123263
0.00138115
0.00151414
0.00163107
0.00173188
0.00181683
0.00188638
0.00194115
0.000420649
0.000352911
0.0002835
0.000216954
0.000157783
0.000108315
6.80784e-05
3.70923e-05
2.07838e-05
3.10333e-05
9.46358e-05
0.000226172
0.000399988
0.000589616
0.000781445
0.000967646
0.00114351
0.00130621
0.00145411
0.00158635
0.00170266
0.00180309
0.00188797
0.00195782
0.00201328
0.000430617
0.000363534
0.000293929
0.000226007
0.000164406
0.000112326
7.02234e-05
3.82291e-05
2.18859e-05
3.71805e-05
0.000119093
0.000273036
0.000461296
0.000658993
0.000854932
0.00104283
0.001219
0.00138125
0.00152839
0.00165986
0.00177554
0.0018756
0.00196045
0.00203063
0.00208679
0.000440336
0.000373995
0.000304386
0.000235371
0.000171556
0.000116831
7.26535e-05
3.95044e-05
2.34516e-05
4.69826e-05
0.000152581
0.000328427
0.000528457
0.00073237
0.000931223
0.0011201
0.00129614
0.00145774
0.00160403
0.0017347
0.00184975
0.00194948
0.00203433
0.00210487
0.00216177
0.000449806
0.000384277
0.000314834
0.000244989
0.000179204
0.000121855
7.54118e-05
4.09647e-05
2.5912e-05
6.27017e-05
0.000196587
0.000391523
0.000600794
0.000809286
0.00101005
0.0011993
0.00137491
0.00153568
0.00168106
0.00181091
0.00192537
0.0020248
0.0021097
0.00218064
0.0022383
0.00045903
0.000394371
0.00032524
0.000254808
0.000187313
0.000127417
7.85458e-05
4.26954e-05
3.01435e-05
8.72905e-05
0.000251439
0.000461365