/*--------------------------------*- C++ -*----------------------------------*\
| =========                 |                                                 |
| \\      /  F ield         | OpenFOAM: The Open Source CFD Toolbox           |
|  \\    /   O peration     | Version:  1.7.x                                 |
|   \\  /    A nd           | Web:      www.OpenFOAM.com                      |
|    \\/     M anipulation  |                                                 |
\*---------------------------------------------------------------------------*/
FoamFile
{
    version     2.0;
    format      ascii;
    class       volScalarField;
    location    "2500";
    object      k;
}
// * * * * * * * * * * * * * * * * * * * * * * * * * * * * * * * * * * * * * //

dimensions      [0 2 -2 0 0 0 0];

internalField   nonuniform List<scalar> 
5460
(
2.80732
2.80973
2.8118
2.81367
2.81542
2.81715
2.81891
2.82074
2.82269
2.82479
2.82707
2.82957
2.83234
2.83542
2.83891
2.84288
2.84751
2.85297
2.85955
2.8676
2.87763
2.8903
2.90648
2.92732
2.95432
2.98942
3.03515
3.09471
3.17219
3.2727
3.40255
3.56938
3.78215
4.05088
4.3861
4.79776
5.2937
5.87768
6.54756
7.29411
8.10088
8.94549
9.8019
10.6432
11.4443
12.184
12.8457
13.4186
13.8964
14.2773
14.563
14.7577
14.8675
14.8997
14.8622
14.7628
14.6092
14.4082
14.1669
13.8915
13.5885
13.2637
12.9222
12.5684
12.2056
11.8366
11.4637
11.0893
10.7155
10.3448
9.97892
9.61959
9.26793
8.92468
8.59032
8.26516
7.94944
7.64337
7.34711
7.06077
6.78438
6.51788
6.26115
6.01399
5.77619
5.54749
5.32763
5.11636
4.91342
4.71856
4.53152
4.35206
4.17991
4.01482
3.85652
3.70476
3.5593
3.41988
3.28626
3.15822
3.03552
2.91795
2.80528
2.69731
2.59384
2.49468
2.39962
2.3085
2.22115
2.13739
2.05707
1.98004
1.90615
1.83528
1.7673
1.70207
1.63948
1.57942
1.52179
1.46647
1.41336
1.36238
1.31343
1.26641
1.22125
1.17786
1.13618
1.09608
1.05781
1.02283
2.88933
2.8901
2.89119
2.89251
2.89402
2.89571
2.89757
2.89961
2.90186
2.90431
2.90702
2.91001
2.91335
2.91711
2.92141
2.92639
2.93228
2.93937
2.94806
2.95886
2.97249
2.98984
3.01211
3.04084
3.07799
3.12608
3.18827
3.26852
3.37169
3.50369
3.67146
3.88296
4.14685
4.47194
4.86638
5.33651
5.88551
6.51219
7.21012
7.96732
8.76679
9.58774
10.4073
11.2026
11.9525
12.6391
13.2488
13.7724
14.2048
14.5447
14.794
14.9566
15.0385
15.0466
14.9882
14.871
14.702
14.4879
14.2353
13.9504
13.6392
13.3074
12.9599
12.601
12.2338
11.8611
11.485
11.1078
10.7317
10.3589
9.99126
9.63041
9.27742
8.93301
8.59764
8.27161
7.95513
7.6484
7.35156
7.06472
6.78788
6.52099
6.26391
6.01645
5.77839
5.54945
5.32938
5.11793
4.91483
4.71983
4.53267
4.35309
4.18084
4.01566
3.85729
3.70546
3.55993
3.42045
3.28678
3.1587
3.03596
2.91834
2.80564
2.69764
2.59415
2.49496
2.39988
2.30874
2.22136
2.13759
2.05725
1.98021
1.90631
1.83543
1.76743
1.70219
1.6396
1.57953
1.52189
1.46656
1.41345
1.36246
1.3135
1.26648
1.22132
1.17792
1.13624
1.09614
1.05786
1.02287
3.05507
3.05645
3.05818
3.06017
3.06238
3.06483
3.06752
3.07045
3.07366
3.07717
3.08105
3.08536
3.09024
3.09585
3.1024
3.11023
3.11976
3.13154
3.14631
3.16504
3.18895
3.21962
3.25903
3.30966
3.37461
3.45765
3.56335
3.6971
3.86509
4.07416
4.33148
4.64403
5.01792
5.45755
5.96476
6.5382
7.17302
7.86083
8.5901
9.34676
10.1149
10.8776
11.6178
12.3192
12.9674
13.55
14.058
14.4851
14.8284
15.0876
15.2647
15.3635
15.3896
15.349
15.2486
15.095
14.8947
14.6538
14.3782
14.0736
13.7454
13.3991
13.0393
12.6697
12.2934
11.9128
11.5299
11.147
10.7659
10.3888
10.0175
9.6534
9.29761
8.95076
8.61327
8.28538
7.96729
7.65916
7.36109
7.07317
6.79538
6.52765
6.26984
6.02174
5.7831
5.55367
5.33316
5.12132
4.91787
4.72256
4.53513
4.35532
4.18286
4.01748
3.85894
3.70696
3.56129
3.42169
3.28792
3.15973
3.0369
2.9192
2.80643
2.69837
2.59481
2.49556
2.40044
2.30925
2.22184
2.13803
2.05766
1.98058
1.90666
1.83575
1.76773
1.70247
1.63986
1.57977
1.52211
1.46677
1.41364
1.36264
1.31367
1.26663
1.22146
1.17805
1.13636
1.09625
1.05797
1.02298
3.30089
3.30331
3.3063
3.30966
3.31331
3.31728
3.32157
3.3262
3.33125
3.33679
3.34297
3.35
3.35815
3.36782
3.37953
3.39398
3.41207
3.43496
3.46412
3.50138
3.54902
3.60985
3.68727
3.78534
3.90882
4.06315
4.25433
4.48864
4.77224
5.11058
5.5077
5.96551
6.4833
7.05747
7.6816
8.34692
9.04287
9.75775
10.4793
11.1951
11.893
12.5612
13.1888
13.7657
14.2835
14.7351
15.1155
15.4218
15.653
15.8098
15.8947
15.9115
15.8651
15.7609
15.605
15.4032
15.1611
14.8841
14.5773
14.2458
13.8946
13.5283
13.1513
12.7669
12.3779
11.9863
11.5941
11.203
10.8149
10.4318
10.0552
9.68654
9.32676
8.97643
8.6359
8.30537
7.98497
7.67481
7.37498
7.0855
6.80634
6.53741
6.27854
6.0295
5.79004
5.55987
5.33872
5.1263
4.92236
4.7266
4.53878
4.35861
4.18583
4.02018
3.86138
3.70918
3.56331
3.42353
3.28959
3.16126
3.0383
2.92049
2.8076
2.69944
2.5958
2.49647
2.40127
2.31002
2.22255
2.13868
2.05826
1.98114
1.90718
1.83623
1.76818
1.70289
1.64024
1.58013
1.52244
1.46708
1.41393
1.36291
1.31392
1.26686
1.22167
1.17825
1.13654
1.09642
1.05813
1.02313
3.62081
3.62515
3.63025
3.6358
3.64172
3.64809
3.65497
3.66244
3.67069
3.67998
3.6907
3.70338
3.71871
3.73762
3.76132
3.79132
3.82949
3.87815
3.94011
4.01872
4.11793
4.2423
4.39697
4.5875
4.81968
5.09911
5.43069
5.81796
6.2625
6.76339
7.31703
7.91724
8.55573
9.22277
9.90791
10.6006
11.2908
11.9689
12.6258
13.2535
13.8441
14.3906
14.8865
15.3262
15.7051
16.0199
16.2683
16.4495
16.5642
16.614
16.6017
16.5311
16.4067
16.2335
16.0167
15.7615
15.4728
15.1551
14.8129
14.4506
14.0727
13.6834
13.2863
12.8846
12.4806
12.076
11.6725
11.2717
10.8752
10.4847
10.1018
9.72762
9.36299
9.00842
8.66417
8.33039
8.00714
7.69449
7.39247
7.10106
6.8202
6.54977
6.28957
6.03936
5.79885
5.56777
5.34581
5.13267
4.92809
4.73177
4.54345
4.36284
4.18966
4.02365
3.86454
3.71205
3.56592
3.42591
3.29177
3.16324
3.04011
2.92215
2.80913
2.70084
2.59708
2.49765
2.40236
2.31102
2.22347
2.13953
2.05905
1.98187
1.90786
1.83686
1.76876
1.70343
1.64075
1.5806
1.52288
1.46748
1.41431
1.36326
1.31424
1.26717
1.22195
1.17851
1.13678
1.09665
1.05835
1.02333
4.00797
4.01482
4.02291
4.03166
4.04106
4.05129
4.06255
4.07518
4.08973
4.10694
4.12781
4.15367
4.18618
4.22741
4.2799
4.34669
4.43135
4.53799
4.67125
4.83621
5.03825
5.28275
5.57472
5.91831
6.31623
6.76922
7.27566
7.83138
8.42985
9.06261
9.71997
10.3918
11.0681
11.7398
12.3988
13.0379
13.6511
14.2331
14.7792
15.285
15.7462
16.1589
16.5193
16.8241
17.0709
17.258
17.3847
17.4512
17.459
17.4101
17.3075
17.1549
16.9567
16.7174
16.4418
16.1344
15.7995
15.4411
15.0632
14.6697
14.2644
13.8512
13.4333
13.0133
12.5934
12.175
11.7595
11.3482
10.9426
10.5442
10.1543
9.77406
9.40408
9.04481
8.69643
8.35902
8.03259
7.71714
7.41264
7.11905
6.83627
6.56413
6.30242
6.05086
5.80916
5.57702
5.35413
5.14017
4.93485
4.73788
4.54897
4.36784
4.1942
4.02777
3.86828
3.71546
3.56904
3.42875
3.29436
3.16562
3.04229
2.92414
2.81096
2.70252
2.59863
2.49907
2.40367
2.31223
2.22459
2.14057
2.06001
1.98276
1.90868
1.83763
1.76947
1.70409
1.64136
1.58117
1.52341
1.46798
1.41477
1.36369
1.31464
1.26754
1.2223
1.17883
1.13708
1.09692
1.05861
1.02358
4.45115
4.46255
4.47575
4.49001
4.50562
4.5232
4.54351
4.56763
4.59707
4.63379
4.68023
4.73935
4.81466
4.91023
5.03063
5.18089
5.36625
5.59201
5.86313
6.18381
6.55702
6.98398
7.46382
7.99334
8.56708
9.17762
9.8161
10.4729
11.1382
11.8026
12.4579
13.0966
13.7128
14.3019
14.8602
15.3852
15.8746
16.3265
16.7392
17.1107
17.4386
17.7206
17.9543
18.1374
18.2681
18.3453
18.3688
18.339
18.2572
18.1257
17.9473
17.7256
17.4645
17.1683
16.8415
16.4882
16.1122
15.7173
15.3069
14.8846
14.4539
14.0182
13.5805
13.1431
12.7079
12.276
11.8487
11.4271
11.0125
10.6062
10.2093
9.82292
9.4475
9.08343
8.73081
8.38965
8.05991
7.74153
7.43445
7.13857
6.85375
6.5798
6.31647
6.06348
5.82051
5.58724
5.36333
5.14847
4.94236
4.74467
4.55513
4.37343
4.19928
4.0324
3.8725
3.71931
3.57255
3.43197
3.29731
3.16832
3.04476
2.92641
2.81305
2.70444
2.6004
2.5007
2.40517
2.31362
2.22587
2.14176
2.06111
1.98378
1.90963
1.83851
1.77029
1.70486
1.64208
1.58184
1.52403
1.46856
1.41531
1.36419
1.31511
1.26797
1.2227
1.1792
1.13743
1.09725
1.05892
1.02388
4.94236
4.96179
4.98452
5.00986
5.03919
5.07436
5.11769
5.17218
5.24154
5.33015
5.44294
5.58534
5.76304
5.98169
6.24652
6.56184
6.93054
7.3536
7.82973
8.35528
8.92435
9.52922
10.161
10.8101
11.4672
12.1234
12.7708
13.4027
14.0131
14.5976
15.1525
15.6754
16.1646
16.6194
17.0394
17.4247
17.7752
18.0908
18.371
18.6148
18.8208
18.9872
19.1119
19.1929
19.2286
19.2179
19.1601
19.0554
18.905
18.7104
18.4743
18.1997
17.8904
17.5504
17.1837
16.7943
16.3856
15.9612
15.5243
15.0781
14.6262
14.1714
13.7167
13.2642
12.8155
12.3717
11.9338
11.5029
11.0801
10.6665
10.2632
9.87108
9.49056
9.12193
8.76526
8.4205
8.08756
7.76634
7.45673
7.1586
6.87176
6.59601
6.33107
6.07663
5.83237
5.59794
5.37301
5.15724
4.9503
4.75189
4.56169
4.3794
4.20472
4.03736
3.87703
3.72345
3.57635
3.43545
3.3005
3.17125
3.04746
2.92889
2.81533
2.70655
2.60234
2.5025
2.40683
2.31516
2.22729
2.14307
2.06233
1.98492
1.91069
1.8395
1.77121
1.70571
1.64287
1.58258
1.52473
1.46921
1.41591
1.36475
1.31563
1.26846
1.22315
1.17962
1.13783
1.09762
1.05927
1.02421
5.47759
5.51613
5.5619
5.61614
5.68337
5.76867
5.87782
6.01734
6.19416
6.41507
6.68624
7.01249
7.39669
7.83915
8.33726
8.8855
9.47579
10.0983
10.7423
11.3971
12.053
12.7015
13.3356
13.95
14.5405
15.1041
15.6386
16.1422
16.6141
17.0533
17.4597
17.8334
18.1751
18.4857
18.766
19.017
19.2395
19.4336
19.5992
19.7354
19.841
19.9141
19.9528
19.955
19.919
19.8432
19.7267
19.5691
19.371
19.1335
18.8585
18.5486
18.2072
17.838
17.4445
17.0305
16.5994
16.1544
15.6987
15.2355
14.768
14.2991
13.8316
13.3674
12.9082
12.4549
12.0086
11.5702
11.1407
10.7211
10.3124
9.91537
9.53046
9.15788
8.79766
8.44971
8.11392
7.79014
7.47824
7.17804
6.88935
6.61192
6.34546
6.08967
5.84418
5.60865
5.38273
5.16608
4.95835
4.75922
4.56837
4.38551
4.21031
4.04248
3.88172
3.72776
3.5803
3.43908
3.30384
3.17433
3.05029
2.93151
2.81774
2.70878
2.6044
2.50441
2.4086
2.3168
2.22882
2.14449
2.06365
1.98614
1.91183
1.84056
1.77221
1.70664
1.64374
1.58339
1.52549
1.46991
1.41657
1.36537
1.31621
1.26899
1.22365
1.18009
1.13826
1.09802
1.05966
1.02458
6.06831
6.1632
6.27945
6.42419
6.60858
6.84236
7.13397
7.48985
7.91326
8.4034
8.95506
9.55884
10.2021
10.8705
11.5493
12.2255
12.8882
13.5292
14.1433
14.7273
15.2797
15.8003
16.2893
16.7476
17.176
17.5753
17.9462
18.2891
18.6045
18.8928
19.1545
19.3904
19.6014
19.7887
19.9532
20.0958
20.2171
20.3171
20.3955
20.4513
20.483
20.4888
20.4666
20.4142
20.3297
20.2113
20.0576
19.8679
19.6419
19.3803
19.0844
18.7562
18.3985
18.0145
17.6077
17.1813
16.7388
16.2831
15.8174
15.3448
14.8684
14.3913
13.9161
13.4447
12.9788
12.5193
12.0674
11.6239
11.1897
10.7658
10.3533
9.95268
9.56448
9.18888
8.82589
8.47542
8.13734
7.81148
7.49769
7.19577
6.90551
6.62665
6.35889
6.10191
5.85534
5.61884
5.39203
5.17458
4.96612
4.76634
4.57491
4.3915
4.21582
4.04754
3.88638
3.73205
3.58426
3.44273
3.30721
3.17744
3.05318
2.93418
2.82022
2.71107
2.60652
2.50638
2.41043
2.3185
2.2304
2.14596
2.06502
1.98743
1.91303
1.84168
1.77326
1.70762
1.64466
1.58426
1.52629
1.47067
1.41728
1.36603
1.31682
1.26957
1.22419
1.18059
1.13873
1.09846
1.06008
1.02499
6.8221
7.12662
7.47685
7.89102
8.38424
8.95806
9.60341
10.3035
11.0372
11.7815
12.5154
13.2221
13.8901
14.5135
15.0903
15.6221
16.112
16.5638
16.9815
17.3684
17.7274
18.0611
18.3716
18.6605
18.9292
19.1784
19.4085
19.6197
19.8119
19.985
20.1395
20.2756
20.394
20.4956
20.5809
20.6505
20.7046
20.7431
20.7652
20.77
20.7557
20.7204
20.662
20.5785
20.4675
20.3273
20.1562
19.953
19.717
19.4483
19.1476
18.8163
18.4568
18.0718
17.6643
17.2374
16.7942
16.3378
15.871
15.3971
14.9192
14.4403
13.963
13.4894
13.0211
12.5593
12.1051
11.6594
11.2231
10.7972
10.3826
9.9801
9.59002
9.2126
8.84789
8.4958
8.1562
7.82893
7.51382
7.21067
6.91927
6.63933
6.37058
6.11267
5.86525
5.62795
5.40043
5.18231
4.97325
4.77292
4.58098
4.39712
4.22101
4.05235
3.89083
3.73617
3.58808
3.44627
3.3105
3.1805
3.05601
2.93681
2.82266
2.71335
2.60864
2.50835
2.41227
2.32022
2.232
2.14746
2.06643
1.98874
1.91426
1.84283
1.77434
1.70864
1.64561
1.58515
1.52713
1.47146
1.41802
1.36672
1.31747
1.27018
1.22476
1.18112
1.13923
1.09893
1.06053
1.02542
7.69855
8.43877
9.25646
10.1408
11.0706
12.0002
12.8841
13.6927
14.4147
15.049
15.6029
16.088
16.5168
16.9002
17.2468
17.564
17.8573
18.1304
18.3858
18.6253
18.8503
19.0618
19.2608
19.448
19.6238
19.7879
19.9399
20.0791
20.2049
20.3169
20.415
20.4995
20.5707
20.6289
20.6748
20.7085
20.7302
20.7396
20.7358
20.7178
20.6838
20.632
20.5604
20.4669
20.3494
20.206
20.0348
19.8344
19.6039
19.3428
19.0513
18.7304
18.3819
18.008
17.6113
17.1947
16.761
16.3131
15.854
15.3868
14.9146
14.4404
13.9669
13.4963
13.0304
12.5704
12.1176
11.6729
11.2373
10.8119
10.3975
9.99498
9.60468
9.22691
8.86173
8.50912
8.16895
7.8411
7.52539
7.22163
6.92962
6.64908
6.37973
6.12124
5.87327
5.63545
5.40743
5.18884
4.97935
4.77861
4.58629
4.40207
4.22564
4.05667
3.89486
3.73994
3.59159
3.44956
3.31357
3.18336
3.05869
2.93932
2.82501
2.71554
2.6107
2.51027
2.41407
2.3219
2.23358
2.14894
2.06782
1.99005
1.91549
1.84399
1.77543
1.70966
1.64658
1.58606
1.52799
1.47226
1.41877
1.36743
1.31814
1.2708
1.22535
1.18167
1.13975
1.09942
1.061
1.02587
2.58435
4.77189
7.06867
9.0976
10.7625
12.0777
13.1097
13.9188
14.5528
15.0817
15.544
15.9599
16.34
16.6901
17.0142
17.3157
17.5969
17.859
18.1035
18.3318
18.5456
18.7463
18.9351
19.1129
19.2798
19.4356
19.5796
19.7111
19.8296
19.935
20.0272
20.1066
20.1735
20.2282
20.2714
20.3032
20.324
20.3335
20.3309
20.3151
20.2849
20.2384
20.1738
20.0893
19.9829
19.8527
19.697
19.5141
19.303
19.0627
18.7932
18.4949
18.1691
17.8177
17.4427
17.0467
16.6324
16.2025
15.7598
15.3074
14.8484
14.3857
13.9222
13.4603
13.0017
12.5482
12.1008
11.6607
11.2291
10.807
10.3954
9.99499
9.60642
9.22998
8.86583
8.51398
8.17438
7.84693
7.53148
7.22786
6.93589
6.65531
6.38585
6.12721
5.87904
5.64101
5.41276
5.19395
4.98423
4.78326
4.59071
4.40627
4.22962
4.06044
3.89844
3.74331
3.59478
3.45257
3.31641
3.18605
3.06122
2.9417
2.82726
2.71766
2.61269
2.51215
2.41584
2.32357
2.23515
2.15042
2.06922
1.99137
1.91673
1.84517
1.77654
1.71072
1.64758
1.587
1.52888
1.4731
1.41957
1.36818
1.31884
1.27147
1.22597
1.18226
1.1403
1.09994
1.0615
1.02636
0.0758178
0.304903
0.806552
1.63002
2.7691
4.15645
5.66903
7.18691
8.6121
9.8774
10.9769
11.9292
12.7587
13.4873
14.1325
14.7
15.1978
15.6423
16.0438
16.4097
16.7454
17.0549
17.3411
17.6062
17.8511
18.0767
18.2837
18.4725
18.6435
18.7973
18.9345
19.0557
19.1614
19.2525
19.3298
19.3941
19.4457
19.4848
19.5108
19.523
19.5202
19.5013
19.4646
19.4086
19.3316
19.2318
19.1077
18.9578
18.7806
18.5754
18.3415
18.0791
17.7889
17.4724
17.1313
16.7677
16.384
15.9828
15.5667
15.1388
14.7019
14.2591
13.8134
13.3671
12.9223
12.4809
12.0441
11.6134
11.19
10.7749
10.3694
9.97416
9.58993
9.21714
8.85605
8.50676
8.16929
7.84361
7.52963
7.22721
6.9362
6.65638
6.38752
6.12933
5.8815
5.64372
5.41565
5.19695
4.98729
4.78635
4.59381
4.40934
4.23263
4.06339
3.90131
3.74611
3.59749
3.45518
3.31892
3.18845
3.06353
2.94391
2.82936
2.71966
2.6146
2.51397
2.41757
2.32521
2.23672
2.15191
2.07063
1.99272
1.91802
1.84639
1.7777
1.71182
1.64862
1.588
1.52982
1.474
1.42042
1.36898
1.3196
1.27219
1.22665
1.1829
1.14091
1.10052
1.06206
1.0269
0.00228032
0.00599423
0.022122
0.0730427
0.200752
0.463761
0.917314
1.59121
2.4776
3.52714
4.6693
5.83504
6.97245
8.05028
9.05403
9.98285
10.835
11.6086
12.3096
12.9458
13.525
14.0538
14.5352
14.9695
15.3656
15.7282
16.0606
16.3651
16.6432
16.896
17.1247
17.3307
17.5154
17.6803
17.8268
17.9562
18.0693
18.1665
18.2479
18.313
18.3612
18.3919
18.4038
18.3958
18.3664
18.3144
18.2382
18.1367
18.0084
17.8524
17.6679
17.4549
17.2135
16.9448
16.6501
16.3313
15.9903
15.6294
15.2511
14.8582
14.4537
14.0404
13.6213
13.199
12.7757
12.3534
11.9338
11.5183
11.1083
10.7052
10.31
9.92378
9.54738
9.18133
8.82605
8.48176
8.14859
7.8266
7.51578
7.21605
6.92732
6.64942
6.38217
6.12533
5.87863
5.64178
5.41448
5.19643
4.9873
4.78679
4.59459
4.4104
4.23392
4.06485
3.9029
3.74778
3.59923
3.45696
3.32072
3.19026
3.06532
2.94568
2.8311
2.72136
2.61626
2.51558
2.41913
2.32672
2.23818
2.15332
2.07198
1.99402
1.91927
1.84759
1.77885
1.71293
1.64969
1.58901
1.5308
1.47493
1.4213
1.36983
1.32041
1.27295
1.22738
1.18359
1.14157
1.10115
1.06267
1.02749
0.00157541
0.00140806
0.00141927
0.00200378
0.00447826
0.012999
0.0384916
0.103231
0.242064
0.495809
0.898106
1.46271
2.17819
3.01182
3.92018
4.86305
5.80842
6.7317
7.61741
8.45713
9.24719
9.98692
10.6788
11.3251
11.9237
12.4765
12.9864
13.4562
13.8885
14.2807
14.6371
14.962
15.2583
15.5283
15.7741
15.9969
16.1978
16.378
16.5381
16.6784
16.7989
16.8992
16.9786
17.0364
17.0716
17.0833
17.0704
17.0318
16.9664
16.873
16.7511
16.6001
16.4201
16.2117
15.9758
15.7138
15.4275
15.1187
14.7899
14.4434
14.082
13.7086
13.3261
12.9371
12.544
12.1491
11.754
11.3607
10.9706
10.5851
10.2056
9.83333
9.46913
9.11378
8.76786
8.43176
8.10574
7.78999
7.48459
7.18958
6.90493
6.63056
6.36634
6.1121
5.86764
5.63271
5.40705
5.1904
4.98247
4.78299
4.59166
4.40821
4.23236
4.06381
3.9023
3.74756
3.59931
3.45729
3.32126
3.19096
3.06616
2.94662
2.83212
2.72244
2.61738
2.51672
2.42029
2.32789
2.23934
2.15448
2.07313
1.99515
1.92038
1.84868
1.77992
1.71396
1.65069
1.58999
1.53174
1.47584
1.42219
1.37068
1.32122
1.27373
1.22813
1.18431
1.14226
1.1018
1.06332
1.02813
0.00155941
0.00135867
0.00119408
0.00106371
0.000977076
0.000982082
0.00124989
0.00234057
0.00601095
0.0171678
0.047002
0.115603
0.251037
0.483123
0.833962
1.31082
1.90441
2.59179
3.34323
4.12965
4.92738
5.71933
6.49461
7.24657
7.96858
8.6563
9.30742
9.92094
10.497
11.0383
11.5433
12.0118
12.4454
12.8463
13.2164
13.5534
13.8615
14.1434
14.4008
14.6345
14.8445
15.0307
15.1931
15.3315
15.4456
15.5347
15.5981
15.6349
15.6443
15.6253
15.5773
15.4997
15.3923
15.2554
15.0895
14.8958
14.6754
14.4302
14.1619
13.8729
13.5657
13.2429
12.9073
12.5616
12.2083
11.8497
11.4878
11.1245
10.7615
10.4006
10.0431
9.69048
9.34379
9.00399
8.67183
8.34791
8.03266
7.7264
7.42937
7.1417
6.8635
6.59478
6.3355
6.08556
5.84485
5.61318
5.39037
5.17618
4.9704
4.77278
4.58307
4.40102
4.22637
4.05887
3.89826
3.74429
3.59671
3.45526
3.31971
3.18983
3.06538
2.94614
2.83189
2.72243
2.61754
2.51703
2.42072
2.32842
2.23995
2.15515
2.07385
1.99591
1.92117
1.84949
1.78075
1.7148
1.65153
1.59083
1.53257
1.47666
1.42299
1.37146
1.32199
1.27448
1.22885
1.18501
1.14294
1.10246
1.06398
1.02879
0.00155519
0.0013553
0.0011912
0.00105548
0.000942487
0.000848128
0.000770686
0.000713592
0.000695164
0.000779818
0.00117514
0.00253672
0.00681965
0.0190472
0.0496755
0.116027
0.240812
0.446963
0.750709
1.15659
1.65668
2.23369
2.8662
3.53377
4.21892
4.90784
5.59001
6.25759
6.90501
7.52968
8.12851
8.69894
9.23965
9.75028
10.2313
10.6855
11.111
11.5078
11.8766
12.218
12.5301
12.8131
13.0693
13.2992
13.5029
13.6796
13.829
13.9507
14.0441
14.1086
14.1435
14.1483
14.1225
14.0663
13.9798
13.8639
13.7194
13.5476
13.3502
13.129
12.8864
12.6245
12.3462
12.0538
11.75
11.4371
11.1173
10.7926
10.465
10.1361
9.80781
9.48147
9.15845
8.83989
8.52676
8.21983
7.91974
7.62698
7.34195
7.06495
6.7962
6.53583
6.28393
6.04051
5.80553
5.57891
5.36054
5.15026
4.9479
4.75329
4.56622
4.38648
4.21385
4.04812
3.88906
3.73644
3.59003
3.44961
3.31496
3.18586
3.06208
2.94342
2.82968
2.72065
2.61614
2.51596
2.41993
2.32787
2.23961
2.15498
2.07384
1.99602
1.92139
1.8498
1.78113
1.71525
1.65203
1.59137
1.53314
1.47726
1.4236
1.37209
1.32262
1.27511
1.22948
1.18563
1.14356
1.10308
1.06461
1.02942
0.0015534
0.00135409
0.00119125
0.00105659
0.000944132
0.000849317
0.000768683
0.000699616
0.000640223
0.000589504
0.00054827
0.000522395
0.000533354
0.000650354
0.00109013
0.00252427
0.00687719
0.0188341
0.0476649
0.108096
0.218771
0.397977
0.658366
1.00354
1.42767
1.91778
2.45739
3.03003
3.62156
4.22124
4.82066
5.41299
5.99291
6.55649
7.10112
7.62618
8.12976
8.61023
9.06651
9.49805
9.90581
10.2887
10.6448
10.9737
11.2751
11.5454
11.7861
11.9983
12.1817
12.3356
12.4591
12.552
12.614
12.6448
12.6445
12.6134
12.5523
12.462
12.3438
12.1992
12.0301
11.8385
11.6267
11.3972
11.1523
10.8944
10.6258
10.3485
10.0646
9.77597
9.48445
9.19169
8.89919
8.6083
8.32017
8.03579
7.75599
7.48148
7.21281
6.95047
6.69482
6.44616
6.20469
5.97055
5.74382
5.52453
5.31265
5.10813
4.91088
4.72079
4.53771
4.36151
4.192
4.02903
3.8724
3.72192
3.5774
3.43864
3.30545
3.17763
3.05499
2.93732
2.82445
2.71618
2.61234
2.51275
2.41723
2.32561
2.23775
2.15346
2.07262
1.99506
1.92066
1.84927
1.78077
1.71503
1.65194
1.59139
1.53326
1.47745
1.42386
1.3724
1.32297
1.2755
1.2299
1.18607
1.14402
1.10356
1.06513
1.02996
0.00155256
0.00135357
0.00119155
0.00105769
0.00094584
0.000851416
0.00077097
0.00070187
0.000642072
0.000589974
0.000544312
0.000504124
0.000468778
0.000438248
0.000414052
0.000402408
0.00042405
0.000543827
0.000963437
0.00230203
0.0062918
0.0170243
0.0423798
0.0946477
0.189259
0.341403
0.561811
0.853858
1.21324
1.63002
2.09146
2.58462
3.09813
3.62273
4.15115
4.67809
5.19905
5.71017
6.20827
6.69087
7.15664
7.60387
8.03037
8.43439
8.81481
9.17258
9.50487
9.80992
10.0868
10.3325
10.5464
10.7297
10.8821
11.0032
11.0925
11.1503
11.1771
11.1735
11.1402
11.0785
10.9898
10.8758
10.7385
10.5799
10.4023
10.2079
9.99888
9.77739
9.5455
9.30516
9.05828
8.80664
8.55189
8.29554
8.03892
7.78322
7.52948
7.27858
7.03128
6.78824
6.54999
6.31699
6.08959
5.86808
5.65267
5.44352
5.2407
5.04428
4.85426
4.67061
4.49328
4.32219
4.15724
3.99832
3.84529
3.69801
3.55632
3.42009
3.28913
3.16329
3.0424
2.92629
2.81479
2.70775
2.60498
2.50634
2.41166
2.32079
2.23358
2.14988
2.06955
1.99244
1.91844
1.8474
1.77921
1.71375
1.6509
1.59056
1.53261
1.47696
1.42351
1.37217
1.32285
1.27546
1.22994
1.18619
1.14419
1.10378
1.06543
1.03032
0.00155212
0.00135333
0.00119181
0.00105853
0.000947163
0.000853095
0.000772882
0.000703903
0.000644133
0.000591986
0.000546202
0.000505771
0.000469879
0.000437866
0.000409201
0.000383482
0.000360508
0.000340522
0.000325041
0.000319556
0.000341779
0.000446391
0.000802782
0.00192777
0.00525248
0.0141283
0.0349903
0.0779038
0.155636
0.28106
0.463799
0.707743
1.01053
1.36485
1.76067
2.18756
2.63616
3.09864
3.56851
4.04034
4.5098
4.97316
5.42697
5.86822
6.29441
6.70436
7.09575
7.46625
7.81408
8.13914
8.43934
8.7119
8.95534
9.16629
9.34472
9.49184
9.60796
9.69285
9.74705
9.77149
9.76725
9.73559
9.67805
9.59641
9.49257
9.36855
9.22638
9.06809
8.89568
8.71113
8.51634
8.31317
8.10335
7.8885
7.67012
7.44954
7.22798
7.0065
6.78605
6.56745
6.35143
6.1386
5.92947
5.72449
5.52401
5.32832
5.13764
4.95214
4.77194
4.59711
4.4277
4.26371
4.10513
3.9519
3.80396
3.66124
3.52364
3.39104
3.26334
3.1404
3.02209
2.90829
2.79885
2.69364
2.59251
2.49532
2.40194
2.31222
2.22604
2.14325
2.06373
1.98735
1.91399
1.84353
1.77585
1.71084
1.64839
1.58841
1.53078
1.47541
1.42221
1.37108
1.32196
1.27474
1.22937
1.18575
1.14388
1.10357
1.06534
1.03033
0.00155189
0.00135321
0.00119201
0.00105913
0.000948139
0.000854376
0.000774387
0.000705552
0.000645858
0.000593727
0.000547914
0.000507419
0.000471436
0.000439306
0.000410487
0.00038453
0.000361062
0.000339771
0.000320404
0.000302778
0.000286837
0.00027285
0.000262053
0.00025871
0.000276356
0.000356439
0.000626855
0.00147745
0.00399131
0.0107294
0.0266951
0.059919
0.120971
0.22109
0.369437
0.570762
0.824563
1.12584
1.46675
1.83843
2.23253
2.64186
3.06037
3.48282
3.90465
4.32226
4.73228
5.13159
5.51743
5.88799
6.24104
6.57377
6.88394
7.1712
7.43299
7.66667
7.87101
8.04248
8.1828
8.29318
8.3743
8.42653
8.45115
8.44962
8.42352
8.37449
8.30431
8.21483
8.1079
7.9854
7.84917
7.70103
7.54273
7.37596
7.20227
7.02315
6.83992
6.65379
6.46588
6.27717
6.08855
5.90077
5.71453
5.53042
5.34894
5.17051
4.99551
4.82422
4.65689
4.49371
4.33482
4.18033
4.03032
3.88482
3.74384
3.60738
3.47541
3.34788
3.22472
3.10587
2.99123
2.88072
2.77423
2.67166
2.5729
2.47784
2.38636
2.29834
2.21369
2.13227
2.05397
1.97869
1.90631
1.83673
1.76984
1.70553
1.64372
1.58429
1.52717
1.47225
1.41945
1.36869
1.31988
1.27295
1.22783
1.18444
1.14278
1.10266
1.06463
1.02977
0.00155175
0.00135314
0.00119215
0.00105955
0.000948841
0.00085533
0.000775542
0.000706856
0.000647258
0.000595179
0.000549378
0.000508865
0.000472838
0.000440646
0.000411749
0.000385705
0.000362139
0.000340741
0.000321245
0.000303427
0.000287097
0.000272093
0.000258281
0.000245569
0.000233944
0.000223615
0.000215448
0.000212384
0.000223685
0.000277502
0.000460173
0.00103608
0.00275447
0.00744563
0.0188339
0.0431832
0.0892004
0.166798
0.284891
0.44911
0.660546
0.915996
1.20923
1.53261
1.87843
2.23991
2.61132
2.9877
3.36465
3.73846
4.10573
4.46314
4.80765
5.13718
5.44912
5.74058
6.00938
6.25572
6.47639
6.66959
6.8343
6.96808
7.07356
7.1521
7.20469
7.23234
7.2366
7.21911
7.18149
7.12538
7.05249
6.96451
6.86314
6.75003
6.62675
6.49481
6.35564
6.21053
6.0607
5.90728
5.75127
5.59358
5.43505
5.27639
5.11827
4.96125
4.80583
4.65242
4.5014
4.35308
4.20772
4.06553
3.92668
3.79131
3.65952
3.53138
3.40693
3.28621
3.16921
3.05591
2.9463
2.84031
2.73791
2.63903
2.54359
2.45152
2.36273
2.27715
2.19468
2.11523
2.0387
1.96502
1.89408
1.82579
1.76006
1.6968
1.63592
1.57735
1.52098
1.46675
1.41457
1.36436
1.31605
1.26957
1.22486
1.18182
1.1405
1.10068
1.06295
1.02834
0.00155167
0.00135311
0.00119225
0.00105984
0.000949342
0.00085603
0.000776415
0.000707868
0.000648373
0.000596362
0.000550599
0.000510097
0.00047406
0.000441838
0.000412898
0.000386798
0.00036317
0.000341702
0.000322132
0.000304238
0.000287829
0.00027274
0.00025883
0.000245976
0.000234073
0.000223028
0.000212766
0.000203232
0.000194423
0.000186468
0.000179901
0.000176522
0.000182025
0.000213715
0.000324534
0.000678391
0.00175532
0.00478694
0.0124278
0.0294233
0.062805
0.121174
0.213012
0.344577
0.518338
0.732709
0.982927
1.26245
1.56428
1.88193
2.20983
2.54308
2.8773
3.20867
3.53362
3.84865
4.15069
4.43782
4.70726
4.95646
5.18387
5.38969
5.57096
5.72675
5.85609
5.95848
6.03633
6.09112
6.12395
6.13604
6.12892
6.10417
6.06332
6.00786
5.93932
5.85916
5.7688
5.66958
5.56277
5.44958
5.33108
5.20831
5.08219
4.95358
4.82325
4.69189
4.56012
4.42848
4.29747
4.16752
4.03899
3.91221
3.78746
3.66496
3.54491
3.42749
3.3128
3.20095
3.09202
2.98607
2.88311
2.78318
2.68626
2.59235
2.50141
2.41343
2.32834
2.2461
2.16666
2.08995
2.01591
1.94447
1.87556
1.80911
1.74504
1.68328
1.62377
1.56642
1.51116
1.45793
1.40666
1.35727
1.3097
1.26389
1.21978
1.1773
1.13647
1.09711
1.05983
1.02558
0.00155162
0.00135309
0.00119232
0.00106004
0.000949698
0.00085654
0.000777067
0.000708642
0.000649245
0.000597308
0.000551596
0.000511124
0.000475097
0.00044287
0.000413912
0.000387783
0.000364116
0.000342603
0.000322984
0.000305035
0.000288569
0.000273421
0.000259451
0.000246537
0.000234572
0.000223464
0.000213129
0.000203497
0.000194504
0.000186095
0.000178222
0.000170852
0.000163977
0.000157666
0.000152211
0.000148613
0.000150086
0.000166497
0.000228053
0.00042924
0.00105683
0.00288898
0.00771692
0.0189724
0.042114
0.0843482
0.153469
0.256065
0.395825
0.572763
0.783595
1.02284
1.28406
1.56095
1.84786
2.13981
2.43239
2.7219
3.00473
3.27755
3.53756
3.78296
4.01123
4.22037
4.40971
4.57888
4.72601
4.85074
4.95228
5.03109
5.08928
5.12827
5.14918
5.1532
5.14173
5.11619
5.0779
5.02814
4.96817
4.89919
4.82232
4.73865
4.64917
4.55481
4.45644
4.35483
4.2507
4.14472
4.03748
3.9295
3.82127
3.7132
3.60568
3.49904
3.39357
3.28951
3.18708
3.08646
2.98781
2.89125
2.79688
2.70478
2.61501
2.52762
2.44263
2.36005
2.27989
2.20214
2.12678
2.05378
1.98311
1.91474
1.84861
1.78469
1.72292
1.66326
1.60564
1.55001
1.49633
1.44452
1.39454
1.34632
1.29982
1.25497
1.21174
1.17006
1.12997
1.09127
1.05463
1.0209
0.00155159
0.00135308
0.00119237
0.00106019
0.000949952
0.000856911
0.000777551
0.000709229
0.00064992
0.000598055
0.000552397
0.000511964
0.000475961
0.000443744
0.000414785
0.000388645
0.000364959
0.000343421
0.000323769
0.000305785
0.00028928
0.00027409
0.000260076
0.000247117
0.000235106
0.000223951
0.00021357
0.000203891
0.000194852
0.000186395
0.00017847
0.000171033
0.000164045
0.000157469
0.000151275
0.000145439
0.000139952
0.000134844
0.000130261
0.000126717
0.000125905
0.000133104
0.000164493
0.000270787
0.000610397
0.00163824
0.00447983
0.0114665
0.0266166
0.0556984
0.10557
0.182797
0.291984
0.434604
0.60882
0.810215
1.03293
1.27085
1.51827
1.7702
2.02234
2.27116
2.5133
2.74574
2.9662
3.17294
3.36395
3.5378
3.69443
3.83327
3.95314
4.05397
4.13526
4.19766
4.24304
4.27273
4.28777
4.28919
4.27817
4.25592
4.22353
4.18206
4.13249
4.0758
4.01289
3.94459
3.87169
3.79493
3.71497
3.63243
3.54788
3.46182
3.37472
3.287
3.19903
3.11116
3.02367
2.93683
2.85087
2.76599
2.68236
2.60013
2.51941
2.44033
2.36295
2.28734
2.21357
2.14166
2.07164
2.00352
1.93731
1.87301
1.81061
1.75008
1.69142
1.63458
1.57955
1.52628
1.47474
1.42489
1.3767
1.33011
1.28509
1.24161
1.19961
1.15906
1.12
1.08226
1.04651
1.01352
0.00155157
0.00135308
0.00119241
0.00106029
0.000950133
0.000857181
0.000777909
0.00070967
0.000650436
0.000598636
0.000553032
0.000512639
0.000476667
0.00044447
0.000415522
0.000389384
0.000365692
0.000344142
0.000324473
0.000306468
0.000289937
0.000274719
0.000260675
0.000247683
0.000235639
0.000224449
0.000214032
0.000204318
0.000195243
0.00018675
0.000178789
0.000171317
0.000164293
0.000157681
0.00015145
0.000145569
0.000140013
0.000134759
0.000129785
0.000125074
0.000120616
0.000116421
0.000112555
0.000109263
0.000107371
0.000109511
0.000123788
0.000175459
0.000344761
0.00087472
0.00241481
0.00643242
0.0156922
0.0345351
0.0686361
0.124076
0.205905
0.316789
0.456342
0.621393
0.806917
1.00719
1.21662
1.43027
1.64404
1.85458
2.05895
2.25458
2.43965
2.61261
2.77189
2.91642
3.04634
3.16127
3.26036
3.34365
3.41103
3.46277
3.50057
3.52561
3.53886
3.54109
3.53328
3.5164
3.49135
3.45899
3.4201
3.37544
3.32572
3.27162
3.21376
3.15271
3.08901
3.02314
2.95555
2.88665
2.81681
2.74635
2.67559
2.6048
2.53421
2.46403
2.39445
2.32564
2.25774
2.19086
2.12513
2.06061
1.99739
1.93553
1.87507
1.81604
1.75847
1.70239
1.64779
1.59469
1.54308
1.49294
1.44428
1.39706
1.35127
1.3069
1.2639
1.22226
1.18197
1.14297
1.10534
1.0689
1.03437
1.00241
0.00155156