/*--------------------------------*- C++ -*----------------------------------*\
| =========                 |                                                 |
| \\      /  F ield         | OpenFOAM: The Open Source CFD Toolbox           |
|  \\    /   O peration     | Version:  1.7.x                                 |
|   \\  /    A nd           | Web:      www.OpenFOAM.com                      |
|    \\/     M anipulation  |                                                 |
\*---------------------------------------------------------------------------*/
FoamFile
{
    version     2.0;
    format      ascii;
    class       volScalarField;
    location    "2500";
    object      mut;
}
// * * * * * * * * * * * * * * * * * * * * * * * * * * * * * * * * * * * * * //

dimensions      [1 -1 -1 0 0 0 0];

internalField   nonuniform List<scalar> 
5460
(
0.00102546
0.00102518
0.00102493
0.00102472
0.00102457
0.00102447
0.00102444
0.00102446
0.00102455
0.0010247
0.0010249
0.00102518
0.00102552
0.00102594
0.00102645
0.00102707
0.00102783
0.00102877
0.00102993
0.00103139
0.00103325
0.00103561
0.00103865
0.00104256
0.00104761
0.0010541
0.00106247
0.00107321
0.00108697
0.00110456
0.00112698
0.00115545
0.00119145
0.00123666
0.00129295
0.00136214
0.00144574
0.00154473
0.00165921
0.0017883
0.0019302
0.00208237
0.00224183
0.00240548
0.00257039
0.002734
0.00289417
0.00304926
0.0031981
0.00333989
0.00347414
0.00360067
0.0037195
0.00383082
0.00393494
0.00403215
0.0041227
0.00420672
0.00428436
0.00435583
0.00442151
0.00448193
0.00453765
0.00458908
0.00463641
0.00467963
0.00471867
0.00475354
0.00478447
0.00481186
0.00483619
0.00485792
0.00487735
0.00489465
0.0049099
0.00492313
0.00493443
0.0049439
0.00495172
0.00495808
0.00496312
0.00496699
0.00496975
0.00497145
0.0049721
0.00497171
0.00497029
0.00496787
0.00496451
0.00496026
0.00495519
0.00494935
0.0049428
0.00493559
0.00492777
0.00491937
0.00491043
0.00490099
0.00489109
0.00488076
0.00487002
0.00485891
0.00484744
0.00483563
0.00482348
0.00481099
0.00479816
0.00478498
0.00477146
0.00475757
0.00474334
0.00472876
0.00471387
0.0046987
0.00468329
0.00466771
0.00465201
0.00463628
0.00462058
0.00460498
0.00458953
0.00457429
0.00455927
0.00454449
0.00452997
0.00451564
0.00450157
0.0044876
0.00447465
0.0044663
0.00101116
0.00101111
0.00101111
0.00101116
0.00101123
0.00101134
0.00101149
0.00101167
0.00101189
0.00101215
0.00101246
0.00101283
0.00101326
0.00101376
0.00101435
0.00101506
0.00101592
0.00101698
0.00101829
0.00101993
0.00102201
0.00102465
0.00102804
0.00103237
0.00103793
0.00104507
0.00105422
0.00106597
0.00108103
0.00110031
0.00112496
0.00115632
0.00119597
0.00124559
0.00130688
0.00138128
0.00146985
0.00157301
0.00169044
0.00182107
0.00196314
0.00211432
0.00227196
0.00243331
0.00259572
0.0027568
0.00291457
0.00306746
0.0032143
0.00335431
0.003487
0.00361215
0.00372976
0.00384001
0.00394318
0.00403955
0.00412935
0.0042127
0.00428974
0.00436067
0.00442588
0.00448588
0.00454122
0.0045923
0.00463931
0.00468225
0.00472103
0.00475569
0.00478643
0.00481365
0.00483784
0.00485942
0.00487872
0.0048959
0.00491103
0.00492416
0.00493536
0.00494475
0.00495249
0.00495877
0.00496374
0.00496754
0.00497024
0.00497188
0.00497248
0.00497203
0.00497057
0.00496812
0.00496473
0.00496044
0.00495534
0.00494947
0.0049429
0.00493567
0.00492783
0.00491941
0.00491046
0.00490101
0.00489109
0.00488074
0.00487
0.00485887
0.0048474
0.00483558
0.00482342
0.00481093
0.00479809
0.00478491
0.00477138
0.00475749
0.00474326
0.00472868
0.00471379
0.00469862
0.00468321
0.00466763
0.00465194
0.0046362
0.0046205
0.0046049
0.00458944
0.00457419
0.00455917
0.00454438
0.00452984
0.00451551
0.00450143
0.00448745
0.00447448
0.00446613
0.000985948
0.000985995
0.000986123
0.000986308
0.000986533
0.000986797
0.000987097
0.000987432
0.000987803
0.000988213
0.000988667
0.000989173
0.000989745
0.000990399
0.000991163
0.000992071
0.00099317
0.000994521
0.000996203
0.000998316
0.00100099
0.0010044
0.00100875
0.00101433
0.0010215
0.00103075
0.0010427
0.00105813
0.00107804
0.0011036
0.00113612
0.00117701
0.00122762
0.00128911
0.00136237
0.00144787
0.00154569
0.00165548
0.0017765
0.00190765
0.0020475
0.00219433
0.00234617
0.00250093
0.00265652
0.00281098
0.00296256
0.00310984
0.0032517
0.00338733
0.00351619
0.00363801
0.00375272
0.00386045
0.00396142
0.00405586
0.00414395
0.00422579
0.00430149
0.00437124
0.0044354
0.00449446
0.00454895
0.00459926
0.00464559
0.00468791
0.00472616
0.00476035
0.00479067
0.00481753
0.00484138
0.00486265
0.00488166
0.00489858
0.00491347
0.00492637
0.00493736
0.00494656
0.00495413
0.00496025
0.00496508
0.00496873
0.0049713
0.00497281
0.00497329
0.00497275
0.00497119
0.00496866
0.00496518
0.00496083
0.00495567
0.00494975
0.00494312
0.00493585
0.00492796
0.00491951
0.00491052
0.00490104
0.00489109
0.00488072
0.00486995
0.0048588
0.00484731
0.00483547
0.00482329
0.00481079
0.00479794
0.00478475
0.00477121
0.00475732
0.00474308
0.00472851
0.00471362
0.00469845
0.00468304
0.00466746
0.00465177
0.00463603
0.00462032
0.00460471
0.00458925
0.00457398
0.00455894
0.00454414
0.00452958
0.00451522
0.00450112
0.00448711
0.00447414
0.00446576
0.000953406
0.000953657
0.000953999
0.00095439
0.000954815
0.000955272
0.000955759
0.000956274
0.000956821
0.000957404
0.000958034
0.000958725
0.0009595
0.00096039
0.000961439
0.000962701
0.000964251
0.000966184
0.000968622
0.000971726
0.000975706
0.000980841
0.000987499
0.000996166
0.00100747
0.00102221
0.00104133
0.00106593
0.00109717
0.0011362
0.00118403
0.00124143
0.00130885
0.00138643
0.001474
0.00157116
0.00167734
0.00179187
0.00191401
0.0020429
0.00217759
0.00231696
0.00245976
0.00260459
0.00274996
0.00289441
0.00303656
0.00317519
0.00330927
0.00343802
0.00356086
0.00367743
0.00378759
0.00389137
0.0039889
0.00408034
0.00416579
0.00424532
0.00431898
0.00438693
0.0044495
0.00450714
0.00456037
0.00460955
0.00465485
0.00469626
0.00473371
0.00476719
0.0047969
0.0048232
0.00484656
0.00486739
0.00488598
0.0049025
0.00491703
0.00492961
0.0049403
0.00494923
0.00495654
0.00496242
0.00496702
0.00497047
0.00497284
0.00497418
0.00497449
0.00497379
0.0049721
0.00496944
0.00496585
0.0049614
0.00495615
0.00495014
0.00494344
0.0049361
0.00492815
0.00491964
0.0049106
0.00490107
0.00489108
0.00488067
0.00486986
0.00485869
0.00484716
0.0048353
0.0048231
0.00481057
0.00479771
0.0047845
0.00477095
0.00475706
0.00474281
0.00472824
0.00471335
0.00469818
0.00468277
0.00466719
0.0046515
0.00463576
0.00462005
0.00460442
0.00458895
0.00457366
0.0045586
0.00454377
0.00452918
0.00451479
0.00450066
0.00448662
0.00447362
0.00446521
0.000915569
0.000915963
0.000916488
0.000917077
0.000917705
0.000918367
0.000919056
0.000919772
0.000920518
0.000921307
0.000922159
0.000923107
0.000924194
0.000925481
0.000927048
0.000929001
0.00093148
0.000934667
0.000938808
0.000944225
0.000951342
0.000960708
0.000973012
0.000989083
0.00100987
0.00103639
0.00106964
0.00111051
0.00115966
0.00121751
0.00128413
0.00135933
0.0014427
0.00153369
0.00163166
0.001736
0.00184613
0.00196149
0.00208155
0.00220577
0.00233355
0.00246421
0.00259693
0.00273082
0.00286487
0.00299806
0.00312937
0.00325782
0.00338257
0.0035029
0.00361822
0.00372816
0.0038325
0.00393118
0.00402427
0.00411181
0.00419386
0.00427038
0.0043414
0.00440701
0.00446751
0.00452333
0.00457493
0.00462265
0.00466665
0.0047069
0.00474331
0.00477589
0.00480481
0.00483041
0.00485314
0.00487339
0.00489145
0.00490748
0.00492156
0.00493371
0.00494402
0.0049526
0.00495959
0.00496518
0.0049695
0.00497268
0.0049748
0.00497591
0.00497601
0.00497511
0.00497324
0.00497042
0.00496669
0.00496211
0.00495674
0.00495062
0.00494383
0.0049364
0.00492837
0.00491979
0.00491068
0.00490109
0.00489105
0.00488059
0.00486973
0.00485851
0.00484695
0.00483505
0.00482282
0.00481027
0.00479738
0.00478416
0.0047706
0.00475669
0.00474244
0.00472786
0.00471297
0.0046978
0.0046824
0.00466682
0.00465113
0.00463539
0.00461967
0.00460403
0.00458854
0.00457323
0.00455814
0.00454327
0.00452865
0.00451422
0.00450005
0.00448597
0.00447293
0.00446449
0.000870234
0.000870991
0.000871865
0.000872764
0.000873671
0.000874586
0.000875507
0.000876443
0.000877416
0.000878462
0.000879636
0.000881012
0.000882692
0.000884814
0.000887559
0.000891169
0.000895961
0.000902346
0.000910847
0.000922105
0.000936878
0.000956011
0.000980393
0.00101088
0.00104823
0.001093
0.00114551
0.00120583
0.00127376
0.00134891
0.00143071
0.00151855
0.0016118
0.00170986
0.00181221
0.00191841
0.00202809
0.00214093
0.00225663
0.00237484
0.00249519
0.0026172
0.00274034
0.00286397
0.00298739
0.00310987
0.00323068
0.00334907
0.00346437
0.00357597
0.00368335
0.00378613
0.00388408
0.00397711
0.00406518
0.0041483
0.00422643
0.0042995
0.00436746
0.00443037
0.00448848
0.00454218
0.00459189
0.00463791
0.00468039
0.00471927
0.00475449
0.00478601
0.00481401
0.0048388
0.0048608
0.00488037
0.00489782
0.00491327
0.00492682
0.00493849
0.00494836
0.00495653
0.00496315
0.00496838
0.00497237
0.00497525
0.00497708
0.00497791
0.00497776
0.00497664
0.00497456
0.00497155
0.00496765
0.00496291
0.0049574
0.00495116
0.00494425
0.00493671
0.00492859
0.00491992
0.00491073
0.00490107
0.00489096
0.00488044
0.00486953
0.00485827
0.00484665
0.00483471
0.00482245
0.00480986
0.00479695
0.00478371
0.00477013
0.00475621
0.00474195
0.00472737
0.00471248
0.00469732
0.00468192
0.00466635
0.00465066
0.00463491
0.00461918
0.00460353
0.00458801
0.00457268
0.00455755
0.00454264
0.00452797
0.0045135
0.00449927
0.00448514
0.00447207
0.00446358
0.000815071
0.000815992
0.000817052
0.000818119
0.00081918
0.000820241
0.000821317
0.00082245
0.000823712
0.000825209
0.000827089
0.00082955
0.000832857
0.000837352
0.000843474
0.000851763
0.000862862
0.000877498
0.000896447
0.00092048
0.000950302
0.000986487
0.00102943
0.00107932
0.00113613
0.00119965
0.0012695
0.00134521
0.00142621
0.00151194
0.00160183
0.00169534
0.00179204
0.00189153
0.00199355
0.00209787
0.00220432
0.00231276
0.00242301
0.00253487
0.00264805
0.0027622
0.0028769
0.00299164
0.00310591
0.00321914
0.00333077
0.00344024
0.003547
0.00365056
0.00375048
0.00384641
0.00393813
0.00402554
0.00410857
0.00418717
0.00426127
0.00433073
0.00439548
0.00445554
0.00451112
0.00456256
0.00461024
0.00465444
0.00469528
0.0047327
0.00476661
0.004797
0.004824
0.00484791
0.00486911
0.00488797
0.00490474
0.00491957
0.00493254
0.00494369
0.00495307
0.0049608
0.00496702
0.00497187
0.0049755
0.00497804
0.00497955
0.00498009
0.00497966
0.00497828
0.00497596
0.00497274
0.00496865
0.00496374
0.00495807
0.00495169
0.00494465
0.004937
0.00492877
0.00492
0.00491073
0.00490098
0.0048908
0.00488021
0.00486924
0.00485792
0.00484625
0.00483427
0.00482196
0.00480934
0.0047964
0.00478313
0.00476953
0.0047556
0.00474134
0.00472676
0.00471187
0.00469671
0.00468132
0.00466575
0.00465006
0.00463432
0.00461858
0.00460291
0.00458737
0.004572
0.00455683
0.00454188
0.00452716
0.00451262
0.00449834
0.00448415
0.00447103
0.00446249
0.000743065
0.000744435
0.000745798
0.000747047
0.000748242
0.000749469
0.000750844
0.000752546
0.000754817
0.000757976
0.000762432
0.00076869
0.00077735
0.000789094
0.000804647
0.000824729
0.00084999
0.000880956
0.000917981
0.000961229
0.00101068
0.00106616
0.00112736
0.00119392
0.00126541
0.00134139
0.00142142
0.00150505
0.00159184
0.0016814
0.00177335
0.00186738
0.00196325
0.00206079
0.00215988
0.00226045
0.00236248
0.00246589
0.00257061
0.00267646
0.00278323
0.0028906
0.00299821
0.00310562
0.00321241
0.00331809
0.00342222
0.00352433
0.00362398
0.00372074
0.00381424
0.00390418
0.00399037
0.0040727
0.00415111
0.00422551
0.00429581
0.00436184
0.00442351
0.00448081
0.00453392
0.00458314
0.00462882
0.00467121
0.0047104
0.00474635
0.00477895
0.00480819
0.00483419
0.00485721
0.00487761
0.00489574
0.00491183
0.00492603
0.00493841
0.00494902
0.00495791
0.00496519
0.00497098
0.00497544
0.00497871
0.0049809
0.00498208
0.00498229
0.00498157
0.00497992
0.00497736
0.00497392
0.00496963
0.00496454
0.0049587
0.00495217
0.00494499
0.00493721
0.00492886
0.00491999
0.00491062
0.00490079
0.00489053
0.00487987
0.00486883
0.00485744
0.00484573
0.00483369
0.00482134
0.00480868
0.0047957
0.00478241
0.0047688
0.00475485
0.00474059
0.004726
0.00471112
0.00469597
0.00468059
0.00466503
0.00464934
0.00463359
0.00461784
0.00460216
0.00458659
0.00457119
0.00455598
0.00454097
0.00452619
0.00451159
0.00449724
0.00448298
0.00446981
0.00446121
0.000650021
0.000651104
0.000652173
0.000653291
0.000654732
0.000656817
0.000659956
0.000664669
0.000671578
0.000681381
0.000694813
0.000712592
0.000735347
0.000763555
0.0007975
0.000837253
0.000882698
0.000933564
0.00098949
0.00105007
0.00111491
0.00118362
0.00125585
0.00133131
0.00140971
0.00149077
0.00157424
0.00165985
0.00174735
0.0018365
0.00192709
0.00201896
0.002112
0.00220615
0.00230141
0.00239779
0.0024953
0.00259395
0.00269366
0.0027943
0.00289567
0.00299747
0.00309937
0.00320098
0.0033019
0.00340171
0.00350001
0.00359639
0.00369047
0.00378186
0.00387025
0.00395536
0.00403703
0.00411516
0.00418968
0.00426051
0.00432753
0.00439057
0.00444953
0.00450438
0.00455528
0.00460249
0.00464634
0.00468706
0.00472473
0.00475931
0.00479069
0.00481886
0.00484391
0.0048661
0.00488576
0.00490319
0.00491864
0.00493223
0.00494406
0.00495415
0.00496257
0.00496941
0.0049748
0.00497888
0.00498179
0.00498363
0.00498448
0.00498439
0.00498337
0.00498145
0.00497864
0.00497497
0.00497048
0.0049652
0.0049592
0.00495251
0.00494519
0.00493728
0.00492882
0.00491984
0.00491037
0.00490045
0.00489011
0.00487937
0.00486826
0.00485681
0.00484504
0.00483295
0.00482055
0.00480785
0.00479485
0.00478153
0.0047679
0.00475394
0.00473967
0.00472509
0.00471022
0.00469508
0.00467971
0.00466416
0.00464847
0.00463273
0.00461697
0.00460127
0.00458568
0.00457023
0.00455497
0.00453991
0.00452506
0.00451039
0.00449597
0.00448164
0.0044684
0.00445974
0.000523092
0.000524679
0.00052686
0.000530375
0.000536044
0.000544652
0.000556996
0.000573838
0.000595811
0.000623345
0.000656625
0.000695578
0.000739914
0.000789193
0.000842904
0.000900535
0.000961627
0.0010258
0.00109273
0.0011622
0.00123399
0.00130797
0.001384
0.00146197
0.00154178
0.0016233
0.00170642
0.00179097
0.0018768
0.00196377
0.00205176
0.00214066
0.00223046
0.00232114
0.00241275
0.00250534
0.00259895
0.00269358
0.00278919
0.00288565
0.00298276
0.00308025
0.00317779
0.00327501
0.00337154
0.003467
0.00356101
0.0036532
0.0037432
0.00383066
0.00391528
0.00399682
0.00407511
0.00415006
0.00422161
0.00428967
0.00435413
0.00441481
0.00447161
0.0045245
0.0045736
0.00461918
0.00466152
0.00470084
0.00473722
0.00477062
0.00480096
0.00482821
0.00485246
0.00487395
0.00489296
0.00490979
0.00492468
0.00493775
0.00494908
0.00495871
0.00496671
0.00497317
0.0049782
0.00498194
0.00498451
0.00498604
0.00498658
0.00498619
0.0049849
0.00498273
0.00497968
0.00497579
0.0049711
0.00496565
0.00495948
0.00495264
0.00494519
0.00493715
0.00492857
0.00491949
0.00490993
0.00489992
0.00488949
0.00487868
0.00486751
0.00485599
0.00484416
0.00483202
0.00481958
0.00480684
0.0047938
0.00478046
0.00476681
0.00475285
0.00473858
0.00472401
0.00470914
0.00469402
0.00467866
0.00466312
0.00464745
0.00463171
0.00461595
0.00460023
0.00458461
0.00456913
0.00455381
0.00453869
0.00452377
0.00450902
0.00449452
0.00448011
0.00446681
0.00445807
0.000359861
0.000367324
0.000379324
0.00039641
0.000419186
0.000448009
0.000482938
0.000523701
0.000569744
0.000620338
0.000674717
0.000732189
0.000792199
0.000854347
0.000918365
0.000984086
0.0010514
0.00112026
0.0011906
0.00126239
0.00133563
0.00141029
0.00148639
0.00156392
0.00164285
0.00172313
0.00180468
0.00188739
0.00197114
0.00205582
0.00214134
0.00222765
0.00231474
0.00240264
0.0024914
0.00258109
0.00267176
0.00276341
0.00285601
0.00294942
0.00304346
0.00313785
0.00323229
0.00332643
0.00341993
0.0035124
0.00360351
0.00369287
0.00378016
0.00386501
0.00394714
0.00402632
0.00410237
0.00417521
0.00424477
0.00431097
0.00437367
0.00443274
0.00448805
0.00453958
0.00458744
0.00463186
0.00467311
0.0047114
0.00474682
0.00477934
0.00480889
0.00483545
0.00485911
0.00488007
0.00489861
0.004915
0.00492945
0.0049421
0.00495304
0.00496232
0.00496998
0.00497613
0.00498087
0.00498433
0.00498664
0.00498789
0.00498817
0.00498753
0.00498599
0.00498359
0.00498033
0.00497625
0.00497139
0.00496577
0.00495945
0.00495248
0.0049449
0.00493675
0.00492807
0.00491888
0.00490923
0.00489914
0.00488864
0.00487776
0.00486652
0.00485495
0.00484306
0.00483087
0.00481839
0.00480561
0.00479255
0.00477918
0.00476552
0.00475156
0.00473729
0.00472272
0.00470788
0.00469277
0.00467743
0.00466191
0.00464625
0.00463052
0.00461475
0.00459902
0.00458337
0.00456785
0.00455248
0.00453729
0.0045223
0.00450747
0.00449289
0.00447838
0.00446502
0.0044562
0.000159754
0.000195147
0.000236394
0.000284089
0.000337932
0.000396601
0.000458408
0.00052187
0.000586002
0.000650316
0.000714729
0.000779387
0.000844505
0.000910288
0.000976894
0.00104444
0.001113
0.00118262
0.00125334
0.00132518
0.00139819
0.00147241
0.00154789
0.00162465
0.00170268
0.00178194
0.00186234
0.00194378
0.00202616
0.00210937
0.00219335
0.00227806
0.00236349
0.00244969
0.0025367
0.00262461
0.00271347
0.00280328
0.00289401
0.00298552
0.00307764
0.00317011
0.00326264
0.0033549
0.00344656
0.00353727
0.00362668
0.00371445
0.00380022
0.00388366
0.00396447
0.0040424
0.0041173
0.00418906
0.00425759
0.00432283
0.00438463
0.00444287
0.00449742
0.00454826
0.00459548
0.0046393
0.00467997
0.00471768
0.00475254
0.00478455
0.00481364
0.00483981
0.00486315
0.00488382
0.0049021
0.00491823
0.00493243
0.00494483
0.00495552
0.00496456
0.00497201
0.00497796
0.00498251
0.00498578
0.00498789
0.00498895
0.00498903
0.00498819
0.00498646
0.00498388
0.00498045
0.00497621
0.0049712
0.00496545
0.00495901
0.00495193
0.00494424
0.004936
0.00492722
0.00491795
0.00490822
0.00489806
0.00488749
0.00487655
0.00486526
0.00485363
0.0048417
0.00482947
0.00481695
0.00480414
0.00479105
0.00477767
0.004764
0.00475003
0.00473577
0.00472122
0.00470639
0.00469131
0.004676
0.0046605
0.00464487
0.00462914
0.00461338
0.00459763
0.00458196
0.00456639
0.00455097
0.00453572
0.00452065
0.00450573
0.00449106
0.00447646
0.00446302
0.00445412
6.63798e-05
0.000131676
0.000205166
0.000277763
0.000346584
0.000411506
0.000473822
0.000534721
0.000595093
0.000656362
0.000719054
0.000783231
0.000848782
0.000915572
0.000983494
0.00105244
0.00112233
0.00119312
0.00126486
0.00133759
0.00141136
0.00148624
0.00156228
0.0016395
0.00171786
0.00179733
0.00187782
0.00195924
0.00204151
0.00212453
0.00220823
0.0022926
0.00237761
0.00246332
0.00254979
0.0026371
0.00272529
0.00281438
0.00290432
0.00299501
0.00308627
0.00317788
0.00326955
0.00336098
0.00345186
0.00354184
0.00363061
0.00371781
0.0038031
0.00388615
0.00396665
0.00404435
0.00411906
0.00419067
0.00425908
0.00432421
0.00438593
0.00444412
0.00449864
0.00454949
0.00459673
0.00464055
0.00468117
0.00471881
0.00475356
0.00478546
0.00481447
0.0048406
0.00486392
0.0048846
0.00490288
0.00491899
0.00493314
0.00494548
0.0049561
0.00496506
0.00497244
0.00497832
0.0049828
0.00498599
0.004988
0.00498896
0.00498892
0.00498795
0.0049861
0.00498339
0.00497984
0.00497549
0.00497038
0.00496453
0.004958
0.00495084
0.00494307
0.00493475
0.0049259
0.00491657
0.00490678
0.00489656
0.00488594
0.00487495
0.0048636
0.00485194
0.00483996
0.00482769
0.00481514
0.00480231
0.0047892
0.00477581
0.00476214
0.00474818
0.00473393
0.0047194
0.00470461
0.00468955
0.00467428
0.00465881
0.0046432
0.00462749
0.00461173
0.00459598
0.00458028
0.00456467
0.0045492
0.00453387
0.00451872
0.00450371
0.00448895
0.00447425
0.00446073
0.00445174
3.05087e-06
1.36256e-05
3.77923e-05
7.83355e-05
0.000135263
0.000205672
0.000284382
0.000366281
0.000447697
0.000526953
0.000604095
0.000679789
0.000754734
0.000829454
0.000904285
0.000979145
0.00105408
0.00112947
0.00120547
0.00128216
0.00135963
0.00143794
0.00151711
0.00159712
0.00167797
0.00175966
0.00184217
0.00192544
0.0020094
0.00209397
0.00217908
0.0022647
0.00235085
0.00243758
0.00252496
0.00261306
0.00270193
0.0027916
0.00288203
0.00297312
0.00306471
0.00315662
0.00324858
0.00334031
0.00343152
0.00352189
0.0036111
0.00369883
0.00378474
0.00386849
0.00394976
0.0040283
0.00410389
0.00417639
0.0042457
0.00431171
0.0043743
0.00443335
0.00448874
0.00454043
0.00458848
0.00463305
0.00467434
0.00471255
0.0047478
0.00478014
0.00480958
0.00483613
0.00485987
0.00488096
0.0048996
0.00491602
0.00493043
0.00494298
0.00495378
0.0049629
0.00497042
0.00497642
0.004981
0.00498427
0.00498634
0.00498732
0.00498729
0.0049863
0.00498442
0.00498167
0.00497808
0.00497369
0.00496854
0.00496265
0.00495609
0.00494888
0.00494108
0.00493272
0.00492384
0.00491447
0.00490464
0.00489439
0.00488373
0.00487271
0.00486134
0.00484964
0.00483764
0.00482535
0.00481278
0.00479993
0.00478681
0.00477342
0.00475976
0.00474581
0.00473159
0.0047171
0.00470234
0.00468733
0.00467209
0.00465667
0.00464109
0.00462541
0.00460966
0.00459391
0.00457819
0.00456255
0.00454702
0.00453162
0.00451638
0.00450127
0.0044864
0.0044716
0.004458
0.00444891
2.12468e-07
4.16894e-07
1.55763e-06
5.39269e-06
1.52824e-05
3.57586e-05
7.07746e-05
0.000121943
0.00018809
0.000265792
0.000350753
0.000439217
0.000528711
0.000617986
0.000706594
0.000794466
0.000881554
0.000967909
0.00105378
0.00113941
0.00122502
0.00131076
0.00139663
0.00148255
0.00156882
0.00165555
0.00174276
0.00183043
0.0019185
0.00200686
0.00209547
0.00218435
0.00227357
0.00236318
0.00245326
0.00254389
0.0026351
0.00272693
0.00281935
0.00291231
0.00300568
0.00309927
0.00319286
0.00328621
0.00337903
0.00347106
0.00356197
0.00365147
0.00373922
0.00382489
0.00390815
0.00398874
0.00406641
0.00414101
0.00421239
0.00428044
0.00434504
0.00440605
0.00446337
0.00451695
0.00456682
0.00461309
0.00465596
0.0046956
0.00473215
0.00476568
0.00479624
0.00482386
0.00484862
0.00487066
0.00489017
0.00490739
0.00492249
0.00493566
0.00494701
0.00495662
0.00496459
0.004971
0.00497595
0.00497954
0.00498189
0.0049831
0.00498325
0.00498242
0.00498066
0.00497802
0.00497452
0.0049702
0.00496512
0.00495929
0.00495277
0.00494561
0.00493784
0.00492951
0.00492065
0.00491129
0.00490148
0.00489123
0.00488059
0.00486957
0.0048582
0.0048465
0.0048345
0.00482221
0.00480964
0.0047968
0.00478369
0.00477032
0.00475668
0.00474276
0.00472858
0.00471413
0.00469943
0.00468448
0.0046693
0.00465394
0.00463841
0.00462277
0.00460705
0.0045913
0.00457557
0.0045599
0.00454432
0.00452885
0.00451353
0.00449832
0.00448335
0.00446843
0.00445475
0.00444556
3.28708e-07
3.02205e-07
2.55542e-07
2.65149e-07
5.05319e-07
1.44198e-06
4.35338e-06
1.18237e-05
2.77055e-05
5.61535e-05
0.000100059
0.000159919
0.00023381
0.000318285
0.000409592
0.00050472
0.000601689
0.000699303
0.000796939
0.000894309
0.000991309
0.00108794
0.00118427
0.00128029
0.00137594
0.00147134
0.00156657
0.00166171
0.00175677
0.00185148
0.00194604
0.00204058
0.00213518
0.00222993
0.0023249
0.00242008
0.00251555
0.00261139
0.00270761
0.0028042
0.00290101
0.00299791
0.00309469
0.00319116
0.00328709
0.0033822
0.00347624
0.00356889
0.00365984
0.00374879
0.0038354
0.00391938
0.00400048
0.00407851
0.0041533
0.00422471
0.00429261
0.00435687
0.00441738
0.00447407
0.00452694
0.00457608
0.00462163
0.00466378
0.00470265
0.00473834
0.00477093
0.00480046
0.00482702
0.00485075
0.00487184
0.00489049
0.0049069
0.00492124
0.00493365
0.00494424
0.0049531
0.00496032
0.00496602
0.00497028
0.00497324
0.00497498
0.0049756
0.00497518
0.00497378
0.00497145
0.00496823
0.00496417
0.00495931
0.0049537
0.00494737
0.00494037
0.00493275
0.00492455
0.0049158
0.00490655
0.00489683
0.00488667
0.0048761
0.00486514
0.00485383
0.00484218
0.00483023
0.00481798
0.00480545
0.00479265
0.00477958
0.00476625
0.00475266
0.00473881
0.00472469
0.00471031
0.00469568
0.00468081
0.00466572
0.00465043
0.00463498
0.00461939
0.00460372
0.004588
0.00457228
0.00455659
0.00454097
0.00452545
0.00451005
0.00449475
0.00447968
0.00446465
0.0044509
0.0044416
3.31543e-07
3.23205e-07
3.14927e-07
3.04925e-07
2.8869e-07
2.62671e-07
2.61918e-07
4.00627e-07
9.61395e-07
2.73808e-06
7.53882e-06
1.849e-05
3.96512e-05
7.48067e-05
0.000126042
0.000193071
0.000273611
0.000364332
0.000461871
0.000563539
0.000667537
0.000772778
0.00087865
0.000984779
0.00109081
0.00119655
0.00130189
0.0014068
0.00151127
0.00161533
0.00171887
0.00182191
0.00192457
0.00202698
0.00212924
0.00223117
0.00233307
0.00243506
0.00253719
0.00263944
0.00274165
0.00284368
0.00294543
0.00304676
0.00314748
0.00324733
0.00334605
0.0034434
0.0035391
0.00363282
0.00372426
0.00381312
0.00389913
0.00398206
0.00406173
0.00413797
0.00421064
0.00427959
0.00434471
0.0044059
0.00446315
0.00451651
0.00456608
0.00461202
0.00465445
0.00469349
0.00472923
0.00476173
0.00479111
0.00481748
0.00484104
0.00486197
0.00488048
0.00489674
0.00491091
0.00492312
0.00493347
0.00494207
0.00494903
0.00495446
0.00495846
0.00496116
0.00496264
0.00496299
0.00496228
0.00496058
0.00495794
0.0049544
0.00495001
0.00494482
0.00493888
0.00493224
0.00492495
0.00491704
0.00490856
0.00489955
0.00489004
0.00488007
0.00486968
0.00485888
0.00484771
0.0048362
0.00482436
0.00481222
0.00479979
0.00478709
0.00477412
0.00476088
0.00474738
0.00473363
0.00471961
0.00470534
0.00469083
0.00467607
0.00466109
0.00464591
0.00463055
0.00461506
0.00459946
0.0045838
0.00456811
0.00455243
0.0045368
0.00452124
0.00450578
0.0044904
0.00447525
0.00446013
0.00444631
0.00443691
3.30933e-07
3.22675e-07
3.15368e-07
3.0887e-07
3.03012e-07
2.97453e-07
2.9136e-07
2.82639e-07
2.67566e-07
2.54278e-07
3.02955e-07
5.68208e-07
1.47122e-06
4.10008e-06
1.06654e-05
2.46229e-05
5.00789e-05
9.05293e-05
0.000147604
0.000220616
0.000307076
0.000403675
0.000507238
0.000615303
0.000726165
0.000838691
0.000952115
0.0010659
0.00117968
0.0012933
0.00140656
0.00151934
0.00163162
0.00174344
0.00185487
0.00196604
0.00207687
0.00218743
0.00229777
0.0024079
0.00251758
0.00262675
0.00273549
0.00284366
0.00295111
0.00305751
0.00316268
0.00326645
0.00336858
0.00346876
0.00356666
0.00366201
0.00375454
0.00384399
0.00393014
0.00401281
0.00409185
0.00416708
0.00423839
0.00430566
0.00436884
0.00442795
0.00448306
0.00453427
0.00458173
0.00462552
0.00466576
0.00470254
0.00473596
0.00476616
0.0047933
0.00481758
0.0048392
0.00485835
0.00487518
0.00488985
0.00490248
0.0049132
0.00492212
0.00492935
0.00493502
0.00493924
0.00494212
0.00494374
0.00494419
0.00494355
0.00494188
0.00493923
0.00493566
0.00493122
0.00492597
0.00491996
0.00491324
0.00490585
0.00489785
0.00488928
0.00488018
0.00487058
0.00486051
0.00485002
0.00483913
0.00482787
0.00481627
0.00480434
0.00479211
0.00477959
0.00476679
0.00475372
0.00474039
0.0047268
0.00471294
0.00469884
0.00468448
0.00466988
0.00465506
0.00464004
0.00462483
0.00460946
0.00459398
0.00457841
0.0045628
0.00454716
0.00453155
0.00451598
0.0045005
0.00448507
0.00446986
0.00445466
0.00444081
0.00443133
3.30655e-07
3.2233e-07
3.15032e-07
3.08582e-07
3.02858e-07
2.97747e-07
2.9315e-07
2.88968e-07
2.85059e-07
2.81095e-07
2.76241e-07
2.68492e-07
2.56337e-07
2.58042e-07
3.50132e-07
7.28252e-07
1.93072e-06
5.25848e-06
1.31878e-05
2.93866e-05
5.80089e-05
0.000102406
0.000163958
0.000241776
0.000333292
0.000435223
0.000544433
0.000658434
0.000775485
0.000894474
0.00101463
0.00113539
0.00125636
0.00137731
0.00149811
0.0016188
0.00173926
0.00185944
0.00197931
0.00209883
0.002218
0.00233664
0.00245459
0.00257175
0.00268799
0.00280285
0.00291639
0.0030285
0.00313898
0.00324744
0.00335358
0.00345718
0.00355799
0.00365572
0.0037501
0.00384094
0.00392808
0.00401133
0.00409055
0.00416561
0.00423643
0.004303
0.00436533
0.00442351
0.00447763
0.0045278
0.00457412
0.00461669
0.00465563
0.00469106
0.00472315
0.00475209
0.00477807
0.00480128
0.00482191
0.00484012
0.00485604
0.00486982
0.0048816
0.00489148
0.00489961
0.0049061
0.00491108
0.00491463
0.00491687
0.00491787
0.00491771
0.00491645
0.00491417
0.00491092
0.00490677
0.00490177
0.00489598
0.00488946
0.00488225
0.0048744
0.00486596
0.00485697
0.00484747
0.0048375
0.00482708
0.00481626
0.00480506
0.0047935
0.00478161
0.0047694
0.0047569
0.00474411
0.00473105
0.00471771
0.00470411
0.00469024
0.00467613
0.00466177
0.00464717
0.00463237
0.00461736
0.00460219
0.00458688
0.00457147
0.00455598
0.00454044
0.0045249
0.00450938
0.00449391
0.00447848
0.00446325
0.00444802
0.00443417
0.00442463
3.30524e-07
3.22169e-07
3.14879e-07
3.08448e-07
3.02734e-07
2.97624e-07
2.93027e-07
2.88868e-07
2.85088e-07
2.81633e-07
2.78455e-07
2.75494e-07
2.72637e-07
2.69596e-07
2.65622e-07
2.59079e-07
2.50505e-07
2.6384e-07
3.84865e-07
8.38148e-07
2.23465e-06
5.99419e-06
1.4727e-05
3.22021e-05
6.26227e-05
0.000109359
0.000173802
0.000255051
0.000350492
0.000456821
0.000570909
0.000690269
0.00081315
0.000938388
0.0010652
0.00119307
0.00132159
0.00145047
0.00157948
0.00170846
0.0018373
0.00196581
0.00209377
0.00222099
0.00234734
0.00247271
0.00259677
0.00271931
0.00284015
0.00295879
0.00307503
0.00318881
0.00329986
0.00340775
0.00351221
0.0036131
0.00371024
0.00380338
0.00389237
0.00397707
0.0040574
0.00413327
0.00420468
0.00427166
0.00433429
0.00439265
0.00444683
0.00449693
0.00454308
0.00458539
0.00462402
0.00465916
0.00469099
0.00471971
0.00474551
0.00476856
0.00478903
0.00480706
0.00482281
0.00483641
0.00484801
0.00485773
0.00486571
0.00487205
0.00487688
0.00488028
0.00488234
0.00488315
0.00488279
0.00488132
0.00487882
0.00487535
0.00487098
0.00486577
0.00485977
0.00485305
0.00484565
0.00483762
0.004829
0.00481984
0.00481018
0.00480005
0.00478949
0.00477853
0.00476719
0.0047555
0.00474347
0.00473113
0.00471848
0.00470554
0.00469232
0.00467883
0.00466506
0.00465104
0.00463678
0.00462228
0.00460758
0.00459268
0.00457763
0.00456245
0.00454716
0.0045318
0.0045164
0.00450099
0.00448561
0.00447024
0.00445505
0.00443983
0.00442605
0.0044165
3.30457e-07
3.22087e-07
3.14806e-07
3.08393e-07
3.02693e-07
2.97589e-07
2.92989e-07
2.8882e-07
2.85022e-07
2.81545e-07
2.7835e-07
2.75401e-07
2.72671e-07
2.70131e-07
2.67757e-07
2.65509e-07
2.63301e-07
2.60897e-07
2.57686e-07
2.52456e-07
2.46809e-07
2.65857e-07
3.96811e-07
8.70986e-07
2.31082e-06
6.14288e-06
1.49737e-05
3.2576e-05
6.32107e-05
0.000110411
0.000175834
0.000258848
0.000357019
0.000467072
0.000585785
0.000710556
0.000839542
0.000971504
0.00110557