/*--------------------------------*- C++ -*----------------------------------*\
| =========                 |                                                 |
| \\      /  F ield         | OpenFOAM: The Open Source CFD Toolbox           |
|  \\    /   O peration     | Version:  1.7.x                                 |
|   \\  /    A nd           | Web:      www.OpenFOAM.com                      |
|    \\/     M anipulation  |                                                 |
\*---------------------------------------------------------------------------*/
FoamFile
{
    version     2.0;
    format      ascii;
    class       volVectorField;
    location    "2500";
    object      U;
}
// * * * * * * * * * * * * * * * * * * * * * * * * * * * * * * * * * * * * * //

dimensions      [0 1 -1 0 0 0 0];

internalField   nonuniform List<vector> 
5460
(
(30.9655 0.0026843 0)
(30.9513 0.00379276 -1.1886e-18)
(30.9204 0.00439997 -1.18156e-17)
(30.8822 0.00463852 -1.66788e-16)
(30.843 0.00472217 -2.2323e-15)
(30.8032 0.0047399 -7.67493e-15)
(30.7626 0.00471604 -2.99052e-14)
(30.7215 0.0046773 -9.55984e-14)
(30.6799 0.00463848 -1.42165e-12)
(30.6379 0.00460381 -1.59478e-12)
(30.5954 0.00457509 -1.25193e-12)
(30.5524 0.00455309 -9.08255e-13)
(30.5088 0.00453773 -6.60033e-13)
(30.4645 0.00452876 -4.95667e-13)
(30.4194 0.00452579 -3.5162e-13)
(30.3735 0.00452865 -2.18861e-13)
(30.3267 0.00453826 -9.96401e-14)
(30.2789 0.00455645 -4.65442e-15)
(30.23 0.00458523 -1.03684e-13)
(30.1797 0.00462704 8.91976e-14)
(30.1281 0.00468519 2.77385e-13)
(30.0746 0.00476401 3.86265e-13)
(30.0192 0.00486903 3.81013e-13)
(29.9613 0.00500796 3.33476e-13)
(29.9005 0.0051911 5.44432e-13)
(29.836 0.00543106 9.43057e-13)
(29.767 0.00574328 1.31933e-12)
(29.6923 0.0061468 1.58784e-12)
(29.6105 0.00666444 1.73363e-12)
(29.5196 0.00732323 1.76721e-12)
(29.4175 0.00815415 1.69977e-12)
(29.3012 0.00918979 1.48734e-12)
(29.1675 0.0104607 1.23378e-12)
(29.0125 0.01199 7.64833e-13)
(28.832 0.013785 4.69061e-13)
(28.6217 0.0158283 -1.3543e-11)
(28.3774 0.0180714 -4.08131e-12)
(28.0958 0.0204314 -1.37492e-12)
(27.7749 0.0227981 -3.85266e-13)
(27.4142 0.0250491 2.74847e-12)
(27.015 0.0270682 1.6047e-12)
(26.5804 0.0287638 8.64008e-13)
(26.1146 0.0300783 6.12902e-13)
(25.6229 0.03099 4.24047e-13)
(25.1108 0.0315083 -1.52957e-13)
(24.5839 0.0316656 -3.1958e-13)
(24.0475 0.0315085 1.4813e-13)
(23.5062 0.0310889 -6.04995e-15)
(22.9641 0.0304583 -3.74807e-13)
(22.4248 0.0296647 -9.3924e-13)
(21.8908 0.0287507 -5.70615e-13)
(21.3647 0.0277525 3.54909e-13)
(20.848 0.0266999 1.73626e-13)
(20.3422 0.025617 -7.24014e-12)
(19.8482 0.0245228 -8.30994e-13)
(19.3667 0.0234318 -1.3428e-13)
(18.8982 0.0223547 -6.40223e-14)
(18.443 0.0212995 2.05028e-13)
(18.0013 0.0202725 1.53154e-13)
(17.573 0.0192786 4.40147e-13)
(17.1581 0.0183211 1.28667e-12)
(16.7565 0.0174021 6.11516e-13)
(16.3678 0.016523 -4.88888e-12)
(15.9918 0.0156835 -1.0077e-12)
(15.6282 0.0148828 -5.14039e-13)
(15.2766 0.0141199 -6.03488e-12)
(14.9368 0.0133938 -1.10771e-12)
(14.6084 0.0127036 6.08387e-12)
(14.2911 0.0120485 1.21416e-12)
(13.9845 0.0114275 1.01653e-14)
(13.6881 0.0108395 2.85555e-13)
(13.4018 0.0102832 1.19298e-12)
(13.125 0.00975678 3.89884e-14)
(12.8574 0.00925877 -6.19274e-13)
(12.5987 0.00878761 -8.50606e-14)
(12.3485 0.00834179 8.23361e-14)
(12.1066 0.00791995 1.17531e-13)
(11.8726 0.00752086 4.6744e-14)
(11.6462 0.00714339 -1.23237e-12)
(11.4272 0.0067864 4.82517e-12)
(11.2152 0.00644871 2.9778e-13)
(11.01 0.00612925 1.72731e-13)
(10.8112 0.005827 4.75929e-13)
(10.6188 0.00554097 9.40534e-13)
(10.4324 0.00527019 3.10437e-12)
(10.2518 0.00501376 1.50239e-12)
(10.0767 0.00477088 4.23398e-13)
(9.90711 0.00454081 -2.09453e-13)
(9.74266 0.00432283 -8.08785e-15)
(9.5832 0.00411624 9.48781e-13)
(9.42854 0.00392039 5.47468e-13)
(9.27851 0.00373472 -5.74444e-13)
(9.13294 0.00355867 1.17204e-12)
(8.99166 0.00339169 2.55526e-13)
(8.85452 0.00323327 6.90405e-14)
(8.72137 0.00308292 -8.40608e-13)
(8.59207 0.00294023 -4.47945e-13)
(8.46647 0.00280479 -1.78384e-12)
(8.34445 0.0026762 5.8557e-13)
(8.22587 0.00255408 9.65365e-13)
(8.11062 0.00243807 5.31735e-13)
(7.99858 0.00232786 -2.61893e-12)
(7.88964 0.00222315 2.98138e-13)
(7.78369 0.00212364 -2.06006e-13)
(7.68063 0.00202907 -3.03768e-12)
(7.58036 0.00193918 -9.10195e-13)
(7.4828 0.00185373 6.8065e-12)
(7.38784 0.00177252 -2.21952e-14)
(7.2954 0.00169531 -1.08224e-12)
(7.20541 0.0016219 1.19178e-12)
(7.11778 0.00155207 -7.24298e-12)
(7.03243 0.00148561 -8.48156e-13)
(6.9493 0.00142234 -1.76662e-14)
(6.86831 0.00136205 -4.42185e-14)
(6.7894 0.00130456 -2.69424e-13)
(6.7125 0.0012497 -2.05934e-13)
(6.63754 0.0011973 -1.07918e-13)
(6.56446 0.00114719 7.25017e-13)
(6.49321 0.00109926 -7.54362e-13)
(6.42373 0.00105335 -2.23046e-13)
(6.35597 0.0010094 -1.45737e-12)
(6.28987 0.000967019 1.40781e-12)
(6.22544 0.000926528 6.95294e-12)
(6.16256 0.000886169 4.57837e-13)
(6.10148 0.000848861 1.90378e-13)
(6.04165 0.000804367 1.23771e-13)
(5.9849 0.000773189 7.07771e-12)
(5.92741 0.000692216 1.42002e-13)
(5.88124 0.000694618 1.78677e-12)
(5.82052 0.000394913 -5.74483e-13)
(30.8665 0.00584639 0)
(30.8542 0.00923708 -3.85362e-18)
(30.8247 0.0109266 -3.26393e-17)
(30.7875 0.0116408 -6.60066e-16)
(30.7491 0.0119852 -9.96424e-15)
(30.7098 0.0121164 -3.12066e-14)
(30.6696 0.0121012 -1.26543e-13)
(30.6287 0.0120305 -3.27995e-13)
(30.5874 0.0119507 -6.17063e-12)
(30.5455 0.0118753 -4.10334e-12)
(30.5031 0.0118113 -2.73859e-12)
(30.4601 0.0117626 -1.89963e-12)
(30.4165 0.01173 -1.4009e-12)
(30.3721 0.0117137 -1.09309e-12)
(30.3269 0.0117133 -7.31019e-13)
(30.2809 0.0117287 -3.92334e-13)
(30.2338 0.0117629 -9.44617e-14)
(30.1857 0.0118212 1.33031e-13)
(30.1363 0.0119094 -4.20229e-13)
(30.0855 0.0120346 4.02228e-13)
(30.0329 0.0122062 9.54844e-13)
(29.9784 0.0124364 1.20168e-12)
(29.9214 0.0127407 1.05588e-12)
(29.8614 0.0131404 8.58445e-13)
(29.7979 0.0136636 1.74863e-12)
(29.7299 0.0143447 2.7863e-12)
(29.6564 0.0152253 3.80517e-12)
(29.5761 0.0163562 4.4816e-12)
(29.4872 0.0177974 4.80973e-12)
(29.3876 0.0196183 4.83826e-12)
(29.2751 0.0218962 4.61619e-12)
(29.1465 0.0247083 3.93594e-12)
(28.9989 0.0281217 3.22619e-12)
(28.8285 0.0321789 1.48896e-12)
(28.632 0.0368788 1.19067e-12)
(28.4059 0.0421602 -1.04061e-11)
(28.1473 0.0478896 -5.32385e-12)
(27.8542 0.0538607 -2.3111e-12)
(27.5256 0.0598108 -6.11019e-13)
(27.1616 0.0654536 8.14655e-12)
(26.7637 0.070519 4.32782e-12)
(26.3347 0.0747905 2.18791e-12)
(25.878 0.078127 1.65158e-12)
(25.398 0.0804694 1.15213e-12)
(24.8994 0.0818322 -3.86151e-13)
(24.3869 0.0822867 -8.81968e-13)
(23.8652 0.0819413 6.01986e-13)
(23.3384 0.0809207 -2.29055e-14)
(22.8103 0.0793519 -1.12656e-12)
(22.2841 0.0773544 -2.64891e-12)
(21.7625 0.0750363 -1.54205e-12)
(21.2476 0.0724906 1.14287e-12)
(20.7414 0.0697947 5.08389e-13)
(20.245 0.0670114 -1.02899e-11)
(19.7597 0.0641908 -1.58658e-12)
(19.286 0.0613716 -2.94305e-13)
(18.8247 0.0585825 -1.76016e-13)
(18.3759 0.0558451 6.09894e-13)
(17.94 0.0531768 4.25616e-13)
(17.517 0.0505909 1.28e-12)
(17.1069 0.0480965 3.87308e-12)
(16.7096 0.0457002 1.72782e-12)
(16.3248 0.0434055 -7.13751e-12)
(15.9524 0.0412124 -2.5679e-12)
(15.592 0.0391192 -1.39741e-12)
(15.2434 0.0371233 -4.86958e-12)
(14.9062 0.0352226 -2.83153e-12)
(14.5802 0.0334149 5.1512e-12)
(14.2651 0.031698 3.16838e-12)
(13.9605 0.0300698 -3.93877e-14)
(13.666 0.0285276 8.25028e-13)
(13.3813 0.0270678 3.48003e-12)
(13.106 0.0256861 1.15558e-13)
(12.8398 0.0243785 -1.95476e-12)
(12.5824 0.0231409 -2.20576e-13)
(12.3334 0.0219696 2.42647e-13)
(12.0926 0.020861 3.36079e-13)
(11.8596 0.019812 1.34506e-13)
(11.6341 0.0188196 -3.70949e-12)
(11.4159 0.0178808 5.36831e-12)
(11.2047 0.0169926 6.41433e-13)
(11.0002 0.0161521 4.78885e-13)
(10.8021 0.0153569 1.15748e-12)
(10.6103 0.0146042 2.80919e-12)
(10.4244 0.0138915 7.72003e-12)
(10.2443 0.0132164 4.25179e-12)
(10.0698 0.012577 1.17598e-12)
(9.90059 0.0119713 -6.35866e-13)
(9.73655 0.0113972 -1.60332e-14)
(9.57747 0.0108532 2.71431e-12)
(9.42317 0.0103373 1.54811e-12)
(9.27347 0.00984822 -1.69112e-12)
(9.12821 0.00938442 3.25549e-12)
(8.98722 0.0089445 7.03378e-13)
(8.85035 0.00852708 1.93794e-13)
(8.71745 0.0081309 -2.40608e-12)
(8.58837 0.00775487 -1.26195e-12)
(8.46299 0.00739793 -5.0907e-12)
(8.34117 0.00705901 1.71964e-12)
(8.22278 0.00673712 2.87307e-12)
(8.10771 0.00643131 1.54946e-12)
(7.99583 0.00614077 -7.50605e-12)
(7.88705 0.00586472 8.69318e-13)
(7.78124 0.00560238 -5.93908e-13)
(7.67832 0.00535304 -8.71264e-12)
(7.57818 0.00511602 -2.56747e-12)
(7.48073 0.00489071 6.46287e-12)
(7.38588 0.00467654 -1.6295e-13)
(7.29355 0.00447294 -3.09642e-12)
(7.20366 0.00427935 3.43538e-12)
(7.11612 0.00409519 -1.05737e-11)
(7.03086 0.00391991 -2.02587e-12)
(6.94781 0.00375302 -3.06867e-14)
(6.8669 0.00359401 -1.25212e-13)
(6.78806 0.00344239 -7.689e-13)
(6.71122 0.00329768 -5.84356e-13)
(6.63633 0.00315944 -3.0635e-13)
(6.56331 0.00302727 2.07469e-12)
(6.49212 0.00290084 -2.15862e-12)
(6.42269 0.00277973 -6.27677e-13)
(6.35498 0.00266377 -4.17448e-12)
(6.28893 0.00255197 4.02945e-12)
(6.22455 0.00244514 9.98021e-12)
(6.16171 0.00233869 1.24109e-12)
(6.10068 0.00224019 5.38409e-13)
(6.04088 0.00212298 3.46607e-13)
(5.98417 0.00204028 1.06907e-11)
(5.92671 0.00182772 3.38667e-13)
(5.88057 0.00183145 5.28596e-12)
(5.81988 0.00104566 -1.65447e-12)
(30.6615 0.00875204 -1.48277e-19)
(30.6482 0.0145905 -5.12065e-18)
(30.6182 0.0171815 -1.09296e-16)
(30.5809 0.0182492 -2.80903e-15)
(30.5425 0.0188527 -5.30567e-14)
(30.5034 0.0191109 -1.3204e-13)
(30.4633 0.0191157 -6.0237e-13)
(30.4224 0.0190296 -8.41676e-13)
(30.3811 0.0189274 -1.43579e-12)
(30.3393 0.0188289 2.42795e-12)
(30.2968 0.0187459 1.3524e-12)
(30.2538 0.018686 5.4052e-13)
(30.21 0.0186521 -1.16446e-15)
(30.1654 0.0186461 -3.0747e-13)
(30.1199 0.0186692 3.89553e-13)
(30.0733 0.0187235 7.23803e-13)
(30.0256 0.0188163 9.32986e-13)
(29.9765 0.0189593 1.02802e-12)
(29.9257 0.0191653 -2.35203e-12)
(29.873 0.0194494 2.42115e-12)
(29.8179 0.0198315 2.61576e-12)
(29.76 0.0203366 2.44317e-12)
(29.6986 0.0209955 1.20996e-12)
(29.6329 0.0218488 6.90957e-13)
(29.5619 0.022949 4.96724e-12)
(29.4845 0.024358 5.1725e-12)
(29.3992 0.0261482 6.40683e-12)
(29.3041 0.0284027 6.94537e-12)
(29.1974 0.0312128 7.02731e-12)
(29.0766 0.0346731 6.79197e-12)
(28.9393 0.0388741 6.30784e-12)
(28.783 0.0438858 4.58756e-12)
(28.605 0.0497419 3.65793e-12)
(28.4031 0.0564235 -2.27015e-12)
(28.1754 0.063846 1.10907e-12)
(27.9205 0.071854 -4.03242e-13)
(27.6376 0.0802254 -4.4688e-13)
(27.3266 0.0886814 4.48155e-14)
(26.9877 0.096909 5.71788e-13)
(26.6219 0.104589 2.73751e-12)
(26.2304 0.111428 2.5727e-12)
(25.8153 0.117189 1.53126e-12)
(25.3787 0.121709 2.25602e-12)
(24.9236 0.124909 1.59706e-12)
(24.453 0.126791 -6.12517e-13)
(23.9702 0.127425 -1.33068e-12)
(23.4787 0.126936 2.19617e-12)
(22.9818 0.125475 -1.65259e-13)
(22.4824 0.123205 -2.28519e-12)
(21.9835 0.120285 -4.51552e-12)
(21.4875 0.116866 -2.04304e-12)
(20.9964 0.113081 2.76952e-12)
(20.5121 0.109044 7.60207e-13)
(20.0358 0.10485 -3.85521e-12)
(19.5687 0.100576 7.63769e-14)
(19.1118 0.0962839 -9.60557e-14)
(18.6656 0.0920186 -2.77412e-13)
(18.2306 0.0878163 1.18425e-12)
(17.8072 0.0837062 6.33462e-13)
(17.3955 0.079711 2.30565e-12)
(16.9957 0.0758469 7.56867e-12)
(16.6077 0.0721257 2.66836e-12)
(16.2313 0.0685546 -6.24986e-12)
(15.8665 0.0651352 -3.43618e-12)
(15.5131 0.0618657 -2.07176e-12)
(15.1708 0.0587433 -3.51914e-12)
(14.8395 0.0557657 -4.18459e-12)
(14.5187 0.0529301 -2.9364e-12)
(14.2084 0.0502337 4.98464e-12)
(13.9081 0.0476738 -4.72964e-13)
(13.6176 0.0452468 1.4582e-12)
(13.3365 0.0429472 6.31676e-12)
(13.0645 0.0407688 1.73486e-13)
(12.8014 0.0387056 -4.11901e-12)
(12.5468 0.0367517 -2.05731e-13)
(12.3004 0.0349012 4.54825e-13)
(12.0619 0.0331487 5.67569e-13)
(11.831 0.0314894 2.34871e-13)
(11.6076 0.0299189 -7.04982e-12)
(11.3912 0.0284325 3.19472e-13)
(11.1816 0.0270256 5.72439e-13)
(10.9787 0.0256938 7.34269e-13)
(10.7821 0.024433 9.87598e-13)
(10.5916 0.0232394 5.21238e-12)
(10.4069 0.0221088 6.65663e-12)
(10.228 0.0210376 6.86378e-12)
(10.0545 0.0200226 1.7678e-12)
(9.88628 0.0190608 -1.27176e-12)
(9.72315 0.0181491 2.12537e-14)
(9.56491 0.0172848 4.59989e-12)
(9.41139 0.0164651 2.50808e-12)
(9.26242 0.0156878 -3.134e-12)
(9.11783 0.0149505 5.17768e-12)
(8.97747 0.014251 1.0214e-12)
(8.84118 0.0135872 3.06027e-13)
(8.70882 0.0129571 -4.08638e-12)
(8.58026 0.0123589 -2.01346e-12)
(8.45535 0.0117909 -8.54734e-12)
(8.33397 0.0112516 3.19823e-12)
(8.216 0.0107393 5.32534e-12)
(8.10131 0.0102525 2.77032e-12)
(7.9898 0.00978998 -1.28321e-11)
(7.88135 0.00935045 1.587e-12)
(7.77586 0.00893271 -1.03643e-12)
(7.67324 0.00853563 -1.49111e-11)
(7.57337 0.00815812 -4.08425e-12)
(7.47619 0.00779923 -3.98854e-13)
(7.38158 0.00745805 -4.73418e-13)
(7.28948 0.00713368 -5.24602e-12)
(7.19981 0.00682522 5.96008e-12)
(7.11247 0.00653176 -6.91205e-12)
(7.0274 0.00625245 -1.74371e-12)
(6.94453 0.00598647 6.29839e-14)
(6.86379 0.00573303 -2.04615e-13)
(6.78511 0.00549136 -1.29029e-12)
(6.70842 0.00526069 -9.59687e-13)
(6.63367 0.00504032 -5.04032e-13)
(6.56079 0.00482962 3.52003e-12)
(6.48972 0.00462806 -3.66046e-12)
(6.42041 0.00443496 -9.9715e-13)
(6.35281 0.00425008 -7.1099e-12)
(6.28687 0.00407182 6.8404e-12)
(6.22259 0.00390144 6.84047e-12)
(6.15984 0.00373175 1.87538e-12)
(6.0989 0.00357453 8.74099e-13)
(6.03918 0.00338791 5.51188e-13)
(5.98256 0.00325523 7.64864e-12)
(5.92517 0.00291809 3.27379e-13)
(5.8791 0.00291931 9.72015e-12)
(5.81848 0.0016746 -2.87713e-12)
(30.3448 0.0124375 -6.50778e-19)
(30.3301 0.0207646 -1.32179e-17)
(30.2988 0.0241083 -3.66777e-16)
(30.2609 0.0254698 -1.20854e-14)
(30.2222 0.0263156 -3.26845e-13)
(30.1828 0.0266714 -5.55281e-13)
(30.1425 0.0266723 -3.30559e-12)
(30.1015 0.0265592 -2.68247e-12)
(30.06 0.026429 -2.35016e-12)
(30.0179 0.0263063 4.50325e-13)
(29.9752 0.0262093 -2.51021e-13)
(29.9318 0.0261501 -5.03688e-13)
(29.8876 0.0261356 -5.92903e-13)
(29.8423 0.0261715 -5.44967e-13)
(29.7958 0.0262639 4.92182e-12)
(29.748 0.0264207 3.57092e-12)
(29.6984 0.0266584 2.88384e-12)
(29.6468 0.027001 2.47839e-12)
(29.5926 0.0274748 1.71543e-12)
(29.5354 0.0281106 1.93662e-12)
(29.4744 0.0289473 2.0758e-12)
(29.4087 0.0300318 2.02141e-12)
(29.3373 0.0314197 -3.11011e-12)
(29.259 0.0331804 -1.67481e-12)
(29.1724 0.0353977 4.7559e-12)
(29.0757 0.0381627 4.52015e-12)
(28.9671 0.0415711 5.13195e-12)
(28.8446 0.0457175 6.07354e-12)
(28.7062 0.0506844 6.29668e-12)
(28.55 0.0565314 6.15916e-12)
(28.3743 0.0632841 5.74745e-12)
(28.1778 0.0709187 8.44492e-13)
(27.9596 0.0793542 2.09739e-12)
(27.7194 0.088455 1.80002e-12)
(27.4575 0.0980361 5.68932e-12)
(27.1745 0.107877 3.70675e-12)
(26.871 0.117738 2.56884e-12)
(26.5481 0.127365 2.07215e-12)
(26.2066 0.1365 1.83669e-12)
(25.8473 0.144894 1.16924e-12)
(25.4712 0.152314 1.21949e-12)
(25.0792 0.158563 6.80622e-14)
(24.6723 0.16349 3.49545e-12)
(24.2518 0.167006 1.65155e-12)
(23.8193 0.169085 -1.31672e-12)
(23.3767 0.169768 -1.5733e-12)
(22.926 0.169155 -8.03544e-13)
(22.4696 0.167385 -1.20104e-12)
(22.0097 0.164617 -4.30364e-12)
(21.5484 0.161021 -1.08152e-12)
(21.0879 0.156766 -1.45215e-12)
(20.6301 0.152009 5.53112e-13)
(20.1765 0.146888 2.83292e-13)
(19.7287 0.141522 -1.64859e-12)
(19.2878 0.136012 3.02917e-12)
(18.8547 0.130441 9.25149e-14)
(18.4303 0.124872 -4.61868e-13)
(18.0153 0.119355 2.11509e-12)
(17.61 0.113933 6.60634e-13)
(17.2148 0.10864 3.69698e-12)
(16.83 0.103502 5.17458e-12)
(16.4556 0.0985358 2.87264e-12)
(16.0917 0.0937555 -8.15098e-12)
(15.7382 0.0891656 -3.9381e-12)
(15.3951 0.0847657 -2.53634e-12)
(15.0622 0.0805545 -2.30172e-12)
(14.7393 0.0765302 -5.6713e-12)
(14.4264 0.0726906 -2.6044e-12)
(14.1231 0.0690333 1.92795e-12)
(13.8293 0.0655556 4.48886e-12)
(13.5448 0.0622536 2.31175e-12)
(13.2691 0.0591209 4.18356e-12)
(13.0021 0.0561497 2.55904e-13)
(12.7435 0.0533324 -1.64445e-12)
(12.4931 0.0506617 1.95318e-13)
(12.2505 0.0481299 7.42232e-13)
(12.0156 0.0457302 8.13414e-13)
(11.788 0.0434563 3.62777e-13)
(11.5675 0.0413023 -6.34644e-12)
(11.3539 0.0392624 -2.66087e-12)
(11.1468 0.0373303 4.37e-13)
(10.9462 0.0355003 9.54729e-13)
(10.7518 0.0337669 -8.13825e-14)
(10.5633 0.0321249 3.61612e-12)
(10.3805 0.0305689 6.99183e-12)
(10.2033 0.029094 5.20121e-12)
(10.0314 0.0276959 2.04199e-12)
(9.86463 0.0263705 -2.46105e-12)
(9.70286 0.0251137 1.39226e-13)
(9.54589 0.0239218 6.6909e-12)
(9.39355 0.022791 3.36514e-12)
(9.24568 0.0217183 -5.31534e-12)
(9.10211 0.0207006 3.25709e-12)
(8.96269 0.0197348 1.09322e-12)
(8.82729 0.018818 4.00355e-13)
(8.69576 0.0179475 -5.95194e-12)
(8.56796 0.0171209 -2.62642e-12)
(8.44377 0.0163359 -1.22508e-11)
(8.32306 0.0155903 -1.90917e-12)
(8.20571 0.014882 1.21168e-12)
(8.09161 0.0142088 4.40616e-12)
(7.98065 0.013569 -1.18111e-11)
(7.87271 0.0129609 -6.62843e-13)
(7.7677 0.0123829 -1.56553e-12)
(7.66553 0.0118334 -1.53331e-11)
(7.56609 0.0113108 -5.23721e-12)
(7.4693 0.010814 -4.39127e-12)
(7.37507 0.0103416 -7.32155e-13)
(7.28331 0.00989248 -7.59886e-12)
(7.19396 0.0094653 2.8513e-12)
(7.10694 0.00905885 -6.47556e-12)
(7.02216 0.00867194 1.795e-13)
(6.93956 0.00830347 2.82517e-13)
(6.85908 0.00795233 -2.85104e-13)
(6.78064 0.00761746 -1.84826e-12)
(6.70418 0.00729782 -1.32262e-12)
(6.62964 0.00699243 -6.96752e-13)
(6.55695 0.0067004 5.10638e-12)
(6.48608 0.00642103 -5.32749e-12)
(6.41695 0.00615338 -1.289e-12)
(6.34952 0.00589709 -1.0351e-11)
(6.28374 0.00564997 1.00638e-11)
(6.21961 0.00541375 5.44441e-12)
(6.15701 0.00517849 2.4479e-12)
(6.0962 0.00496041 1.18437e-12)
(6.03662 0.00470181 7.33917e-13)
(5.98011 0.00451729 5.44435e-12)
(5.92284 0.00405082 1.55477e-13)
(5.87686 0.00404958 5.88448e-12)
(5.81635 0.00232805 -4.36345e-12)
(29.9075 0.0169333 -2.85238e-18)
(29.8902 0.0276047 -5.00184e-17)
(29.8569 0.0313657 -9.95468e-16)
(29.8181 0.0328987 -4.31431e-14)
(29.7788 0.0339323 -2.22856e-12)
(29.7389 0.0343274 -1.82163e-12)
(29.6982 0.0342913 -1.83393e-12)
(29.6569 0.0341415 -1.75771e-12)
(29.615 0.0339856 -1.71669e-12)
(29.5724 0.0338529 -1.4098e-12)
(29.5291 0.0337702 -1.23216e-12)
(29.4848 0.033757 -1.08793e-12)
(29.4393 0.0338284 -9.66128e-13)
(29.3922 0.0340002 -8.08509e-13)
(29.3433 0.0342894 2.2331e-12)
(29.292 0.0347172 2.49097e-12)
(29.2378 0.0353185 2.4566e-12)
(29.18 0.0361391 2.31456e-12)
(29.1178 0.0372288 2.0652e-12)
(29.0501 0.0386446 1.90012e-12)
(28.9757 0.0404537 1.7946e-12)
(28.8934 0.0427315 1.69888e-12)
(28.8015 0.0455597 8.501e-13)
(28.6985 0.0490285 4.72356e-13)
(28.5827 0.0532312 1.19646e-12)
(28.4523 0.0582479 1.68187e-12)
(28.3058 0.0641361 2.36729e-12)
(28.1418 0.0709217 3.0241e-12)
(27.9596 0.0785866 3.48219e-12)
(27.7587 0.087066 3.71909e-12)
(27.5392 0.0962528 3.7564e-12)
(27.3018 0.105998 3.51387e-12)
(27.0474 0.116125 3.28124e-12)
(26.7773 0.126444 2.90818e-12)
(26.4927 0.136765 3.20852e-12)
(26.1951 0.146911 5.78136e-12)
(25.8855 0.156723 3.8172e-12)
(25.5648 0.166048 3.02265e-12)
(25.2336 0.174737 2.51348e-12)
(24.8925 0.182641 -9.01992e-13)
(24.5416 0.189608 1.77942e-13)
(24.181 0.195496 -2.47795e-12)
(23.8109 0.200177 1.68269e-13)
(23.4314 0.203552 3.93303e-13)
(23.0431 0.205565 -3.27051e-12)
(22.6466 0.20621 -1.80294e-12)
(22.2429 0.20554 -1.93447e-12)
(21.8333 0.203649 -1.71235e-12)
(21.4192 0.200664 -2.79242e-12)
(21.0021 0.196733 -1.5525e-12)
(20.5838 0.192018 -1.40734e-12)
(20.1657 0.186677 -4.01144e-13)
(19.7494 0.180858 -1.96863e-13)
(19.3363 0.174695 -9.67848e-13)
(18.9274 0.168303 3.16005e-13)
(18.5239 0.161782 -4.96268e-13)
(18.1267 0.155211 -8.54058e-13)
(17.7366 0.148655 4.07269e-13)
(17.3541 0.14217 2.46833e-13)
(16.9798 0.135804 5.87839e-12)
(16.6141 0.129591 4.5658e-12)
(16.2571 0.12356 2.94123e-12)
(15.9091 0.11773 -7.02598e-12)
(15.5701 0.112111 -3.77483e-12)
(15.2402 0.106706 -2.83399e-12)
(14.9194 0.101518 -1.64688e-12)
(14.6077 0.0965457 -2.82323e-12)
(14.3048 0.0917899 -1.99984e-12)
(14.0108 0.0872494 4.63897e-13)
(13.7255 0.0829226 4.39326e-12)
(13.4486 0.0788063 2.78762e-12)
(13.1801 0.0748939 3.32164e-12)
(12.9196 0.0711772 5.99966e-13)
(12.667 0.0676477 -4.95123e-13)
(12.422 0.0642972 7.53999e-13)
(12.1845 0.061117 1.08978e-12)
(11.9542 0.0580992 1.06886e-12)
(11.7308 0.0552363 5.03808e-13)
(11.5143 0.0525218 -7.18361e-12)
(11.3043 0.0499486 -5.03003e-12)
(11.1006 0.0475092 4.56064e-13)
(10.9031 0.0451967 1.1937e-12)
(10.7115 0.0430048 1.60436e-12)
(10.5257 0.0409269 3.23831e-12)
(10.3453 0.0389566 4.9933e-12)
(10.1704 0.0370878 4.24335e-12)
(10.0006 0.0353152 2.17382e-12)
(9.8358 0.0336339 -9.40558e-13)
(9.67585 0.0320389 4.07792e-13)
(9.52056 0.0305253 9.10134e-12)
(9.36978 0.0290888 4.05202e-12)
(9.22336 0.0277255 -2.16812e-12)
(9.08115 0.0264315 2.14707e-12)
(8.943 0.0252031 1.07591e-12)
(8.80877 0.0240365 4.88458e-13)
(8.67833 0.0229284 -8.08445e-12)
(8.55156 0.0218759 -3.01518e-12)
(8.42832 0.0208761 -1.63e-11)
(8.3085 0.0199262 -5.35142e-12)
(8.19199 0.0190235 -1.31201e-12)
(8.07867 0.0181653 1.32135e-12)
(7.96843 0.0173495 -9.74358e-12)
(7.86118 0.016574 -2.09393e-12)
(7.75681 0.0158366 -2.09175e-12)
(7.65523 0.0151355 -1.75498e-11)
(7.55636 0.0144686 -6.06442e-12)
(7.46009 0.0138344 -2.66597e-12)
(7.36636 0.0132313 -8.17654e-13)
(7.27507 0.0126578 -5.47678e-12)
(7.18616 0.0121122 1.10564e-12)
(7.09954 0.011593 -3.01427e-12)
(7.01515 0.0110987 3.44939e-12)
(6.93292 0.0106279 5.43937e-13)
(6.85277 0.0101791 -3.76027e-13)
(6.77465 0.00975113 -2.47202e-12)
(6.6985 0.00934254 -1.66669e-12)
(6.62424 0.00895214 -8.82762e-13)
(6.55183 0.00857877 6.88166e-12)
(6.48121 0.00822156 -7.26179e-12)
(6.41232 0.00787929 -1.45771e-12)
(6.34512 0.00755152 -1.00101e-11)
(6.27956 0.00723546 1.41613e-11)
(6.21563 0.00693329 4.74826e-12)
(6.15322 0.00663235 3.00305e-12)
(6.09259 0.0063533 1.45984e-12)
(6.03318 0.00602247 8.92505e-13)
(5.97683 0.00578607 -5.91765e-13)
(5.91972 0.00518952 -1.16217e-13)
(5.87386 0.00518644 4.19053e-12)
(5.8135 0.00298475 -6.07372e-12)
(29.3327 0.0223465 -1.55054e-17)
(29.3126 0.0351241 -2.39782e-16)
(29.2773 0.0388724 -1.26717e-15)
(29.2378 0.0405054 -1.84905e-14)
(29.1982 0.0417138 -4.77487e-13)
(29.1578 0.0421135 -7.24177e-13)
(29.1166 0.0420357 -8.69636e-13)
(29.0747 0.041873 -9.37993e-13)
(29.032 0.0417357 -9.7763e-13)
(28.9883 0.0416633 -9.72449e-13)
(28.9433 0.0416976 -9.43965e-13)
(28.8966 0.0418733 -9.02534e-13)
(28.8476 0.0422234 -8.57887e-13)
(28.7957 0.0427853 -7.93435e-13)
(28.7402 0.043599 -2.86099e-14)
(28.6801 0.0447106 5.48098e-13)
(28.6145 0.0461854 8.79557e-13)
(28.5421 0.0481014 1.04894e-12)
(28.4616 0.0505374 1.10185e-12)
(28.3714 0.0535748 1.0966e-12)
(28.2699 0.0572969 1.12819e-12)
(28.1557 0.0617796 1.16372e-12)
(28.0273 0.0670817 9.81041e-13)
(27.8835 0.0732448 6.76109e-13)
(27.7233 0.0802836 5.56775e-13)
(27.5462 0.088168 6.8033e-13)
(27.3524 0.0968231 9.63186e-13)
(27.1422 0.106133 1.30432e-12)
(26.9167 0.115947 1.62176e-12)
(26.6772 0.126092 1.86173e-12)
(26.4252 0.1364 2.05188e-12)
(26.1623 0.146704 4.92978e-12)
(25.8902 0.156855 3.73027e-12)
(25.61 0.166732 3.00196e-12)
(25.3231 0.176233 2.47041e-12)
(25.0304 0.185282 3.42204e-12)
(24.7324 0.193826 3.34137e-12)
(24.4296 0.201809 3.06763e-12)
(24.1222 0.209173 2.66448e-12)
(23.81 0.215845 5.256e-13)
(23.4928 0.221736 2.57908e-13)
(23.1701 0.226746 -1.39293e-12)
(22.8417 0.230771 -6.02e-13)
(22.507 0.233706 -4.39107e-13)
(22.1657 0.235471 -2.52265e-12)
(21.8179 0.236015 -1.49525e-12)
(21.4637 0.235339 -2.89512e-12)
(21.1035 0.233483 -1.88704e-12)
(20.7382 0.230522 -2.19095e-12)
(20.3687 0.226565 -1.67919e-12)
(19.9961 0.221745 -1.42791e-12)
(19.6216 0.216203 -8.30428e-13)
(19.2465 0.21008 -5.25076e-13)
(18.872 0.20351 -7.83335e-13)
(18.4993 0.196616 -9.77561e-13)
(18.1295 0.189508 -1.18169e-12)
(17.7634 0.182275 -1.3659e-12)
(17.402 0.174996 -6.34427e-13)
(17.046 0.16774 -2.58149e-13)
(16.6961 0.160567 4.56577e-12)
(16.3527 0.153523 4.12161e-12)
(16.0163 0.146645 2.92056e-12)
(15.6871 0.139963 -4.14517e-12)
(15.3653 0.133493 -3.17917e-12)
(15.0513 0.127244 -3.08663e-12)
(14.7449 0.121221 -1.10633e-12)
(14.4464 0.11543 -9.34683e-13)
(14.1558 0.109874 -1.43559e-12)
(13.8729 0.104554 -2.58201e-13)
(13.5978 0.0994705 5.21745e-12)
(13.3303 0.0946226 3.04939e-12)
(13.0704 0.0900045 2.98753e-12)
(12.8178 0.0856083 1.18034e-12)
(12.5725 0.0814257 2.51877e-13)
(12.3342 0.0774483 1.40485e-12)
(12.1029 0.0736672 1.46725e-12)
(11.8782 0.0700737 1.32324e-12)
(11.6601 0.0666602 6.57627e-13)
(11.4484 0.0634194 -8.76762e-12)
(11.2429 0.0603436 -6.9669e-12)
(11.0433 0.0574246 9.61376e-13)
(10.8496 0.0546546 1.49001e-12)
(10.6616 0.0520265 2.56815e-12)
(10.479 0.0495329 3.177e-12)
(10.3017 0.0471664 4.14928e-12)
(10.1295 0.0449201 3.67038e-12)
(9.96233 0.0427879 2.23813e-12)
(9.79996 0.040764 -2.97846e-13)
(9.64224 0.0388429 7.16889e-13)
(9.48904 0.0370187 9.40772e-12)
(9.3402 0.0352864 4.44621e-12)
(9.19558 0.0336414 -4.90288e-13)
(9.05505 0.0320793 1.57164e-12)
(8.91846 0.0305955 1.03879e-12)
(8.78569 0.0291859 5.87551e-13)
(8.65661 0.0278463 -8.2183e-12)
(8.53111 0.0265734 -3.06698e-12)
(8.40906 0.0253638 -1.85106e-11)
(8.29035 0.0242141 -7.67377e-12)
(8.17487 0.0231211 -3.08135e-12)
(8.06252 0.0220817 -5.26536e-13)
(7.95319 0.0210934 -8.81234e-12)
(7.84679 0.0201535 -3.08311e-12)
(7.74322 0.0192596 -2.56314e-12)
(7.64239 0.0184094 -1.70043e-11)
(7.54421 0.0176005 -6.50267e-12)
(7.4486 0.0168311 -1.27158e-12)
(7.35548 0.0160993 -8.39342e-13)
(7.26478 0.0154031 -4.20324e-12)
(7.17641 0.0147407 5.76021e-14)
(7.0903 0.0141103 -1.06371e-12)
(7.00639 0.0135099 3.53578e-12)
(6.92461 0.0129379 6.87898e-13)
(6.8449 0.0123927 -4.89719e-13)
(6.76718 0.0118726 -3.20675e-12)
(6.6914 0.0113761 -1.98454e-12)
(6.6175 0.0109015 -1.06155e-12)
(6.54543 0.0104476 8.87219e-12)
(6.47513 0.0100133 -6.323e-12)
(6.40654 0.00959714 -1.45599e-12)
(6.33962 0.00919854 -1.0622e-11)
(6.27433 0.00881413 1.60145e-11)
(6.21065 0.00844657 4.24136e-12)
(6.14848 0.00808046 3.56218e-12)
(6.08808 0.0077409 1.69044e-12)
(6.02889 0.00733833 1.03033e-12)
(5.97273 0.00705045 -3.22034e-12)
(5.91582 0.00632434 -3.40511e-13)
(5.87011 0.00631992 3.36466e-12)
(5.80994 0.00363928 -8.03899e-12)
(28.6038 0.0292344 -9.69551e-17)
(28.5788 0.0436146 -1.78621e-15)
(28.5407 0.0467286 -5.88676e-15)
(28.5002 0.0483946 -4.00238e-14)
(28.4599 0.0497566 -1.67834e-12)
(28.4186 0.0501333 -1.24983e-12)
(28.3763 0.0500448 -9.80111e-13)
(28.3329 0.0499505 -8.13829e-13)
(28.2878 0.0499676 -7.72855e-13)
(28.2406 0.0501675 -7.83091e-13)
(28.1904 0.050623 -7.8959e-13)
(28.1364 0.0513963 -7.84344e-13)
(28.0776 0.0525507 -7.7396e-13)
(28.0127 0.0541557 -7.3482e-13)
(27.9403 0.0562817 9.75492e-13)
(27.8591 0.0590015 8.58026e-13)
(27.7675 0.0624031 4.48425e-13)
(27.664 0.0665744 2.89134e-13)
(27.5471 0.0715797 2.46296e-13)
(27.4157 0.0774583 2.61287e-13)
(27.2689 0.0842201 6.19431e-13)
(27.1062 0.0918346 8.45346e-13)
(26.9277 0.100226 4.36304e-13)
(26.7339 0.109289 -2.51421e-13)
(26.5259 0.11889 -4.47009e-13)
(26.3051 0.128869 1.40288e-13)
(26.0731 0.139054 4.45868e-13)
(25.8318 0.149276 6.35289e-13)
(25.5828 0.15938 7.74124e-13)
(25.3277 0.169234 8.61786e-13)
(25.0681 0.178742 9.57108e-13)
(24.805 0.187836 1.96402e-12)
(24.5395 0.196466 2.20001e-12)
(24.2722 0.204609 2.06456e-12)
(24.0036 0.212252 1.25382e-12)
(23.734 0.219398 3.40508e-12)
(23.4634 0.226059 3.06974e-12)
(23.1917 0.232238 2.86738e-12)
(22.9186 0.237928 2.4986e-12)
(22.6438 0.243098 -4.84363e-13)
(22.3666 0.247695 -2.73252e-14)
(22.0865 0.251649 -2.25061e-12)
(21.8026 0.25487 -9.30345e-13)
(21.5145 0.257258 -1.10568e-12)
(21.2212 0.258711 -3.43908e-12)
(20.9225 0.25915 -1.16178e-12)
(20.618 0.258529 -1.59004e-12)
(20.3076 0.256836 -1.64886e-12)
(19.9915 0.254096 -1.8503e-12)
(19.6703 0.250367 -1.62019e-12)
(19.3446 0.245741 -1.37431e-12)
(19.0153 0.240332 -9.83401e-13)
(18.6833 0.23426 -6.95316e-13)
(18.3497 0.227647 -7.3833e-13)
(18.0155 0.220614 -2.06713e-12)
(17.6817 0.213272 -1.87106e-12)
(17.3494 0.205717 -1.94925e-12)
(17.0194 0.198036 -1.36505e-12)
(16.6925 0.190311 -7.04198e-13)
(16.3695 0.182611 5.10718e-12)
(16.051 0.174993 3.8128e-12)
(15.7375 0.167505 2.81347e-12)
(15.4295 0.160186 -3.27948e-12)
(15.1272 0.153061 -2.6078e-12)
(14.8311 0.146144 -3.46431e-12)
(14.5413 0.139448 -4.71775e-13)
(14.2579 0.132984 7.16657e-13)
(13.9812 0.126758 -1.10405e-12)
(13.7112 0.120776 -6.41791e-13)
(13.4478 0.115043 3.93409e-12)
(13.1912 0.109558 3.03605e-12)
(12.9412 0.10432 2.85191e-12)
(12.6979 0.0993215 1.64155e-12)
(12.461 0.0945548 7.9768e-13)
(12.2305 0.0900126 2.06004e-12)
(12.0064 0.0856865 1.83065e-12)
(11.7884 0.0815677 1.56237e-12)
(11.5764 0.0776488 8.30902e-13)
(11.3703 0.0739225 -8.22206e-12)
(11.17 0.0703809 -8.30764e-12)
(10.9753 0.0670153 -2.42868e-13)
(10.7861 0.0638176 1.84902e-12)
(10.6022 0.0607802 3.20505e-12)
(10.4235 0.0578952 3.17097e-12)
(10.2497 0.0551545 3.73326e-12)
(10.0809 0.0525506 3.30511e-12)
(9.91678 0.0500768 2.31365e-12)
(9.75727 0.0477267 5.57356e-15)
(9.60221 0.0454941 1.00004e-12)
(9.45147 0.0433727 1.05616e-11)
(9.30493 0.0413567 4.58178e-12)
(9.16245 0.0394411 4.86373e-13)
(9.02391 0.0376208 1.29908e-12)
(8.88918 0.0358909 1.00213e-12)
(8.75814 0.0342464 7.05747e-13)
(8.63068 0.0326829 -8.86036e-12)
(8.50669 0.0311965 -2.78483e-12)
(8.38605 0.0297833 -1.99098e-11)
(8.26866 0.0284394 -9.15178e-12)
(8.15441 0.0271613 -4.37367e-12)
(8.04321 0.0259455 -1.79928e-12)
(7.93497 0.0247888 -8.62788e-12)
(7.82958 0.0236885 -3.77247e-12)
(7.72696 0.0226417 -2.95909e-12)
(7.62701 0.0216457 -1.79986e-11)
(7.52967 0.0206979 -6.5937e-12)
(7.43485 0.0197959 4.4784e-14)
(7.34247 0.0189378 -8.56878e-13)
(7.25245 0.0181213 -3.41727e-12)
(7.16474 0.0173442 -6.02097e-13)
(7.07924 0.0166044 4.17872e-13)
(6.99591 0.0158997 3.81591e-12)
(6.91467 0.0152282 6.9746e-13)
(6.83546 0.014588 -6.35005e-13)
(6.75822 0.0139772 -4.11382e-12)
(6.6829 0.0133939 -2.26533e-12)
(6.60943 0.0128363 -1.23394e-12)
(6.53776 0.012303 8.20175e-12)
(6.46783 0.0117926 -6.53944e-12)
(6.39961 0.0113034 -1.32651e-12)
(6.33303 0.0108348 -9.21876e-12)
(6.26806 0.0103828 1.66594e-11)
(6.20468 0.00995062 3.67108e-12)
(6.1428 0.00952004 4.1404e-12)
(6.08267 0.00912061 1.86454e-12)