/*--------------------------------*- C++ -*----------------------------------*\
| =========                 |                                                 |
| \\      /  F ield         | OpenFOAM: The Open Source CFD Toolbox           |
|  \\    /   O peration     | Version:  1.7.x                                 |
|   \\  /    A nd           | Web:      www.OpenFOAM.com                      |
|    \\/     M anipulation  |                                                 |
\*---------------------------------------------------------------------------*/
FoamFile
{
    version     2.0;
    format      ascii;
    class       volScalarField;
    location    "2200";
    object      k;
}
// * * * * * * * * * * * * * * * * * * * * * * * * * * * * * * * * * * * * * //

dimensions      [0 2 -2 0 0 0 0];

internalField   nonuniform List<scalar> 
5460
(
2.80723
2.8094
2.81109
2.81245
2.81357
2.81453
2.81538
2.81617
2.81694
2.8177
2.8185
2.81937
2.82034
2.82147
2.82284
2.82456
2.82678
2.8297
2.83361
2.83888
2.84602
2.85569
2.86876
2.88637
2.90994
2.94132
2.98287
3.03756
3.10908
3.20206
3.32212
3.476
3.67148
3.91716
4.22188
4.59372
5.03861
5.55873
6.15106
6.80658
7.51047
8.24332
8.98322
9.70792
10.3968
11.0325
11.6013
12.094
12.5054
12.8339
13.0812
13.2507
13.3475
13.3768
13.3444
13.2561
13.1181
12.9369
12.7196
12.4732
12.2039
11.9169
11.6162
11.3047
10.9847
10.6583
10.3276
9.99467
9.66186
9.33118
9.00441
8.68304
8.36819
8.06074
7.76128
7.47022
7.18777
6.91402
6.64898
6.39258
6.14478
5.90549
5.67464
5.45215
5.2379
5.03171
4.83341
4.64275
4.45953
4.28349
4.11441
3.95206
3.79622
3.64667
3.5032
3.36561
3.23367
3.10719
2.98597
2.8698
2.75849
2.65185
2.54969
2.45181
2.35805
2.26822
2.18214
2.09965
2.0206
1.94481
1.87216
1.80251
1.73571
1.67164
1.61019
1.55124
1.49468
1.4404
1.3883
1.3383
1.29029
1.24418
1.19991
1.15738
1.11652
1.07725
1.03953
1.00325
0.968591
0.936821
2.88887
2.88907
2.88948
2.89
2.89058
2.89121
2.89187
2.89257
2.89332
2.89413
2.89503
2.89606
2.89729
2.89878
2.90065
2.90307
2.90625
2.91051
2.91623
2.92396
2.93438
2.94841
2.96718
2.99218
3.02525
3.06871
3.12545
3.19902
3.29376
3.41485
3.56835
3.76111
4.00053
4.29409
4.64853
5.06886
5.55724
6.11186
6.72635
7.38963
8.08655
8.79909
9.50788
10.1939
10.8396
11.4305
11.9551
12.4057
12.7781
13.0712
13.2868
13.4284
13.5007
13.5088
13.458
13.3538
13.2021
13.0092
12.7819
12.5269
12.2501
11.9568
11.6506
11.3345
11.0105
10.6807
10.347
10.0116
9.67668
9.34415
9.01578
8.69301
8.37696
8.06845
7.76807
7.4762
7.19304
6.91868
6.6531
6.39624
6.14802
5.90837
5.67721
5.45445
5.23995
5.03355
4.83505
4.64424
4.46086
4.28469
4.11549
3.95304
3.79711
3.64748
3.50394
3.36628
3.23429
3.10775
2.98648
2.87027
2.75892
2.65225
2.55005
2.45215
2.35836
2.2685
2.1824
2.09989
2.02082
1.94502
1.87235
1.80268
1.73587
1.67179
1.61033
1.55137
1.49479
1.44051
1.3884
1.33839
1.29037
1.24426
1.19998
1.15745
1.11658
1.07731
1.03959
1.0033
0.96864
0.936868
3.054
3.05417
3.05455
3.05507
3.05567
3.05636
3.05714
3.05802
3.05901
3.06015
3.06149
3.06313
3.06517
3.06779
3.07122
3.07578
3.08191
3.09015
3.10126
3.11616
3.13604
3.1624
3.1971
3.24242
3.30115
3.37666
3.47293
3.5946
3.74693
3.93571
4.16695
4.44652
4.77956
5.16972
5.61852
6.12464
6.68362
7.28786
7.92691
8.58811
9.25734
9.91987
10.5612
11.1676
11.727
12.2294
12.6671
13.0349
13.3304
13.5536
13.7064
13.7923
13.8155
13.7808
13.6928
13.5563
13.3768
13.1599
12.9119
12.6391
12.3471
12.0406
11.7231
11.3972
11.0649
10.728
10.3882
10.0476
9.7081
9.37167
9.03993
8.71422
8.39561
8.08487
7.78254
7.48896
7.20431
6.92865
6.66192
6.40406
6.15497
5.91456
5.68273
5.45938
5.24436
5.0375
4.8386
4.64742
4.46373
4.28728
4.11784
3.95516
3.79903
3.64923
3.50554
3.36773
3.23561
3.10897
2.98759
2.87129
2.75986
2.6531
2.55084
2.45288
2.35903
2.26912
2.18297
2.10042
2.0213
1.94546
1.87276
1.80306
1.73622
1.67211
1.61063
1.55164
1.49505
1.44074
1.38862
1.33859
1.29056
1.24444
1.20014
1.1576
1.11672
1.07744
1.03971
1.00341
0.968748
0.936971
3.29885
3.29904
3.29964
3.30046
3.30142
3.30253
3.30379
3.30524
3.30693
3.30895
3.31146
3.31466
3.31883
3.32438
3.33183
3.34186
3.35536
3.37345
3.39752
3.42933
3.47099
3.52506
3.5946
3.68319
3.79492
3.93438
4.10653
4.3165
4.56928
4.86927
5.21977
5.62242
6.0768
6.58005
7.12689
7.70983
8.31959
8.94568
9.57699
10.2023
10.8107
11.3918
11.9364
12.436
12.8836
13.2734
13.6012
13.8645
14.0627
14.1967
14.269
14.283
14.2425
14.1516
14.0144
13.8351
13.6182
13.369
13.093
12.796
12.4831
12.1586
11.8255
11.4862
11.1423
10.7953
10.447
10.099
9.75312
9.41118
9.07465
8.74479
8.42254
8.10862
7.8035
7.50749
7.2207
6.94315
6.67478
6.41548
6.16513
5.92361
5.69081
5.4666
5.25083
5.04331
4.84381
4.65212
4.46796
4.2911
4.12129
3.9583
3.80188
3.65182
3.5079
3.36989
3.23758
3.11077
2.98925
2.8728
2.76125
2.65438
2.55202
2.45396
2.36002
2.27003
2.18381
2.10119
2.02202
1.94612
1.87337
1.80362
1.73674
1.6726
1.61107
1.55206
1.49543
1.4411
1.38895
1.3389
1.29084
1.2447
1.20039
1.15782
1.11693
1.07764
1.03989
1.00358
0.96891
0.937126
3.61736
3.61798
3.61918
3.62065
3.62231
3.62423
3.62648
3.62914
3.63241
3.63657
3.64198
3.64919
3.65889
3.67197
3.6896
3.71322
3.74459
3.78588
3.83968
3.90903
3.99747
4.10897
4.24793
4.41899
4.62681
4.87579
5.16964
5.51098
5.90087
6.33852
6.82112
7.34385
7.90017
8.48215
9.08101
9.68754
10.2925
10.8869
11.4625
12.0114
12.5267
13.0022
13.4325
13.813
14.1402
14.4111
14.624
14.7783
14.8747
14.915
14.902
14.839
14.7297
14.5777
14.3865
14.1595
13.9009
13.6152
13.3074
12.9827
12.6457
12.3002
11.9489
11.5938
11.2362
10.8774
10.5188
10.162
9.80847
9.45988
9.11757
8.78266
8.456
8.1382
7.82968
7.53066
7.24124
6.96138
6.69097
6.42988
6.17796
5.93507
5.70106
5.47578
5.25906
5.0507
4.85046
4.65811
4.47337
4.29599
4.12572
3.96232
3.80554
3.65515
3.51094
3.37267
3.24012
3.1131
2.99138
2.87477
2.76305
2.65604
2.55354
2.45536
2.36132
2.27123
2.18491
2.10221
2.02295
1.94699
1.87417
1.80436
1.73742
1.67323
1.61166
1.5526
1.49594
1.44157
1.38938
1.3393
1.29122
1.24505
1.20071
1.15812
1.11721
1.0779
1.04014
1.00381
0.969125
0.937331
4.00251
4.00354
4.0056
4.00811
4.01105
4.01463
4.01903
4.02463
4.03194
4.04172
4.05493
4.07286
4.09707
4.12951
4.17254
4.22894
4.30194
4.39525
4.51298
4.65954
4.83951
5.05732
5.31694
5.62143
5.97256
6.37041
6.81317
7.29714
7.81693
8.3658
8.93613
9.51991
10.1091
10.6961
11.2736
11.835
12.3743
12.886
13.3654
13.8082
14.2104
14.5688
14.8805
15.143
15.3544
15.5134
15.6194
15.6729
15.6751
15.6283
15.5356
15.4002
15.2255
15.0148
14.7711
14.4975
14.1975
13.8753
13.5354
13.1825
12.8207
12.4535
12.0832
11.7115
11.3394
10.968
10.5984
10.2321
9.8703
9.5145
9.16589
8.82544
8.49391
8.17183
7.85953
7.55717
7.2648
6.98233
6.70963
6.44653
6.19283
5.94837
5.71297
5.48647
5.26867
5.05935
4.85826
4.66515
4.47973
4.30176
4.13096
3.96708
3.80987
3.65911
3.51455
3.37597
3.24316
3.11588
2.99394
2.87712
2.76522
2.65804
2.55538
2.45706
2.36288
2.27267
2.18624
2.10344
2.02409
1.94804
1.87514
1.80526
1.73826
1.674
1.61238
1.55326
1.49655
1.44213
1.38991
1.33979
1.29167
1.24547
1.2011
1.15849
1.11755
1.07821
1.04043
1.00408
0.969388
0.937583
4.44285
4.44546
4.44961
4.45456
4.46063
4.46844
4.47873
4.49255
4.51137
4.53704
4.57182
4.61845
4.68014
4.76054
4.86374
4.99414
5.15635
5.35491
5.59402
5.87712
6.20644
6.58264
7.00443
7.46853
7.96977
8.50148
9.05603
9.6254
10.2017
10.7777
11.3467
11.903
12.4418
12.9589
13.4506
13.914
14.3461
14.7447
15.1074
15.4322
15.7171
15.9604
16.1604
16.3154
16.4244
16.4863
16.5011
16.4692
16.392
16.272
16.1119
15.915
15.6844
15.423
15.1334
14.8186
14.4818
14.1267
13.7575
13.3786
12.9938
12.6062
12.2178
11.8301
11.444
11.0604
10.6801
10.3044
9.93438
9.57139
9.21645
8.87042
8.53395
8.20749
7.89131
7.5855
7.29007
7.00489
6.72979
6.46455
6.20898
5.96286
5.72599
5.49819
5.27923
5.06888
4.86687
4.67294
4.4868
4.30818
4.13679
3.9724
3.81473
3.66355
3.51862
3.37971
3.24659
3.11904
2.99684
2.87979
2.76768
2.66031
2.55748
2.45899
2.36467
2.27432
2.18777
2.10485
2.02539
1.94925
1.87626
1.8063
1.73922
1.67489
1.6132
1.55403
1.49726
1.4428
1.39053
1.34036
1.2922
1.24596
1.20156
1.15891
1.11795
1.07858
1.04078
1.00441
0.969697
0.937878
4.92987
4.9361
4.94529
4.95678
4.97189
4.99243
5.02059
5.05918
5.1116
5.18182
5.27427
5.39373
5.54516
5.73344
5.96303
6.23759
6.5595
6.92949
7.34633
7.80668
8.30516
8.83476
9.38732
9.95421
10.5269
11.0978
11.6599
12.2079
12.7373
13.2449
13.7281
14.1853
14.615
15.0162
15.3881
15.7299
16.0405
16.3192
16.5651
16.777
16.954
17.0948
17.1981
17.2627
17.2873
17.2711
17.2135
17.1148
16.9764
16.8
16.5884
16.3443
16.0705
15.7698
15.4444
15.0971
14.7308
14.3491
13.956
13.5556
13.1514
12.7464
12.3424
11.9408
11.5424
11.1478
10.7579
10.3737
9.99628
9.6267
9.26592
8.9147
8.5736
8.243
7.92312
7.614
7.31561
7.02779
6.75034
6.48301
6.22558
5.97781
5.73949
5.51038
5.29025
5.07886
4.87593
4.68116
4.49428
4.31499
4.14301
3.97808
3.81993
3.66832
3.523
3.38374
3.2503
3.12246
3
2.88271
2.77037
2.6628
2.55978
2.46112
2.36664
2.27614
2.18946
2.10642
2.02685
1.95059
1.87751
1.80746
1.74029
1.67589
1.61413
1.55489
1.49806
1.44354
1.39122
1.341
1.2928
1.24652
1.20208
1.1594
1.1184
1.079
1.04117
1.00478
0.970048
0.938214
5.45819
5.47623
5.50091
5.53336
5.57785
5.63909
5.72232
5.8334
5.97841
6.16323
6.39309
6.672
7.00229
7.38412
7.81521
8.2909
8.80435
9.34715
9.91005
10.4836
11.059
11.6283
12.1847
12.723
13.2391
13.7303
14.1949
14.6319
15.0411
15.4227
15.7771
16.1047
16.406
16.6814
16.931
17.1547
17.3523
17.5234
17.6675
17.7837
17.8712
17.9291
17.9559
17.9503
17.911
17.8367
17.7265
17.5805
17.3992
17.1841
16.9375
16.6616
16.3589
16.0317
15.6821
15.3126
14.926
14.5258
14.1157
13.6997
13.2814
12.8633
12.4475
12.0352
11.627
11.2238
10.8262
10.4352
10.0516
9.67661
9.31095
8.95534
8.61028
8.27611
7.95299
7.64095
7.33992
7.04972
6.77013
6.50089
6.24175
5.99245
5.75276
5.52243
5.30121
5.08882
4.885
4.68944
4.50184
4.3219
4.14934
3.98389
3.82527
3.67324
3.52753
3.38792
3.25416
3.12603
3.00331
2.88577
2.77322
2.66543
2.56222
2.46339
2.36874
2.2781
2.19127
2.1081
2.02841
1.95204
1.87886
1.80871
1.74146
1.67697
1.61514
1.55583
1.49894
1.44435
1.39198
1.34171
1.29346
1.24713
1.20265
1.15993
1.11889
1.07946
1.0416
1.00518
0.970434
0.938584
6.0353
6.09471
6.17364
6.27861
6.41984
6.60608
6.84472
7.14125
7.4983
7.91491
8.38636
8.90444
9.45834
10.0358
10.6246
11.2135
11.793
12.356
12.8974
13.4138
13.903
14.364
14.7961
15.1996
15.5749
15.9227
16.2441
16.5402
16.8123
17.0616
17.2891
17.4958
17.6824
17.8493
17.9967
18.1244
18.2322
18.3194
18.3856
18.43
18.4516
18.4493
18.4218
18.3676
18.285
18.1725
18.029
17.8539
17.6474
17.4105
17.1447
16.852
16.5344
16.1937
15.8318
15.451
15.054
14.6441
14.2249
13.8004
13.3738
12.9481
12.525
12.1058
11.6914
11.2825
10.8797
10.484
10.0963
9.71743
9.34828
8.98947
8.64147
8.30458
7.97895
7.6646
7.36145
7.06931
6.78796
6.51713
6.25655
6.00596
5.76509
5.5337
5.31152
5.09827
4.89366
4.69738
4.50913
4.32861
4.15553
3.98959
3.83054
3.67811
3.53205
3.39211
3.25805
3.12965
3.00667
2.8889
2.77612
2.66814
2.56474
2.46573
2.37092
2.28012
2.19315
2.10985
2.03004
1.95356
1.88027
1.81003
1.74268
1.67812
1.6162
1.55682
1.49986
1.44522
1.39278
1.34246
1.29416
1.24778
1.20326
1.1605
1.11942
1.07996
1.04207
1.00562
0.970852
0.938985
6.74863
6.9734
7.24017
7.56603
7.96502
8.43876
8.9794
9.57221
10.1986
10.8382
11.4723
12.0858
12.6681
13.2136
13.7207
14.1903
14.625
15.0278
15.4016
15.7485
16.0706
16.3691
16.6452
16.9001
17.1347
17.35
17.547
17.7267
17.89
18.0377
18.1707
18.2895
18.3944
18.4856
18.5628
18.6255
18.6734
18.7056
18.7215
18.7202
18.7007
18.6618
18.6021
18.5201
18.4139
18.2819
18.1227
17.9353
17.7195
17.4759
17.2054
16.9096
16.5899
16.2479
15.8851
15.5037
15.1061
14.6954
14.2753
13.8494
13.4213
12.9935
12.5682
12.1467
11.73
11.3187
10.9138
10.5161
10.1265
9.74581
9.37491
9.01439
8.66474
8.32626
7.99908
7.68326
7.3787
7.08525
6.80266
6.53069
6.26906
6.0175
5.77575
5.54355
5.32062
5.10669
4.90144
4.70459
4.51581
4.3348
4.16127
3.99494
3.83552
3.68275
3.53637
3.39614
3.26182
3.13316
3.00995
2.89197
2.77899
2.67082
2.56725
2.46807
2.37311
2.28216
2.19506
2.11163
2.0317
1.95512
1.88172
1.81138
1.74395
1.6793
1.61731
1.55785
1.50082
1.44612
1.39362
1.34324
1.29489
1.24847
1.2039
1.16109
1.11998
1.08048
1.04256
1.00608
0.971295
0.939411
7.4776
8.01815
8.65915
9.3812
10.1619
10.9582
11.727
12.4382
13.0789
13.645
14.1409
14.5755
14.9594
15.3022
15.6125
15.897
16.1611
16.4084
16.6406
16.8588
17.0634
17.2546
17.4326
17.5977
17.7502
17.8902
18.0182
18.1343
18.2391
18.3331
18.4166
18.49
18.5534
18.6064
18.6486
18.6796
18.6985
18.7048
18.6976
18.676
18.6391
18.5857
18.5145
18.4238
18.312
18.1772
18.0179
17.833
17.6219
17.3847
17.1221
16.8351
16.5247
16.1923
15.839
15.4667
15.0777
14.6748
14.2616
13.8417
13.4184
12.9945
12.5722
12.1531
11.7383
11.3285
10.9248
10.528
10.139
9.75879
9.38813
9.02767
8.6779
8.33915
8.0116
7.69532
7.39024
7.09622
6.81306
6.54053
6.27835
6.02626
5.784
5.55132
5.32793
5.11355
4.90789
4.71064
4.52149
4.34014
4.16629
3.99965
3.83995
3.68692
3.5403
3.39984
3.2653
3.13645
3.01305
2.89488
2.78174
2.6734
2.56967
2.47035
2.37524
2.28417
2.19694
2.11339
2.03335
1.95666
1.88317
1.81274
1.74522
1.68049
1.61842
1.5589
1.5018
1.44703
1.39448
1.34405
1.29564
1.24917
1.20456
1.16171
1.12056
1.08103
1.04307
1.00656
0.971756
0.939855
2.25365
4.1546
6.18762
8.02116
9.55184
10.7762
11.743
12.5058
13.1018
13.5959
14.0249
14.4084
14.7567
15.076
15.3706
15.6446
15.9008
16.1405
16.365
16.5751
16.7714
16.9546
17.125
17.2832
17.4292
17.5632
17.6853
17.7958
17.8954
17.9845
18.0638
18.1335
18.1937
18.2441
18.2844
18.3141
18.3326
18.3394
18.3337
18.3147
18.2817
18.2335
18.1691
18.0869
17.9854
17.8628
17.7175
17.5483
17.3544
17.1357
16.8924
16.6251
16.3346
16.0219
15.6879
15.3342
14.9627
14.5762
14.1779
13.7712
13.3595
12.9457
12.5321
12.1204
11.7119
11.3078
10.9088
10.5162
10.1308
9.75366
9.38553
9.02714
8.67903
8.34158
8.01502
7.69947
7.3949
7.10124
6.81831
6.54589
6.28376
6.03167
5.78936
5.55659
5.33308
5.11856
4.91274
4.71532
4.526
4.34447
4.17045
4.00364
3.84377
3.69058
3.5438
3.40319
3.26849
3.13949
3.01594
2.89764
2.78435
2.67588
2.57202
2.47257
2.37735
2.28615
2.19882
2.11516
2.03502
1.95823
1.88465
1.81413
1.74653
1.68172
1.61958
1.55998
1.50282
1.44799
1.39538
1.34489
1.29643
1.24992
1.20526
1.16237
1.12118
1.0816
1.04361
1.00707
0.97225
0.940331
0.0633189
0.25133
0.667376
1.36389
2.34707
3.56819
4.92308
6.301
7.61061
8.78071
9.79995
10.6828
11.4506
12.1235
12.7181
13.2405
13.6978
14.106
14.4751
14.8116
15.1201
15.4036
15.6642
15.9034
16.1221
16.3214
16.5026
16.6669
16.8156
16.95
17.0711
17.1796
17.2757
17.3596
17.4313
17.4907
17.5377
17.5718
17.5926
17.5995
17.5921
17.5695
17.5309
17.475
17.4004
17.3056
17.1891
17.0497
16.8864
16.6989
16.4872
16.2516
15.9927
15.7109
15.4071
15.0825
14.7388
14.3785
14.0043
13.6197
13.2278
12.8316
12.4336
12.0356
11.6393
11.2458
10.8564
10.4722
10.0942
9.72346
9.36089
9.00728
8.66322
8.32919
8.0055
7.69232
7.38973
7.09769
6.81609
6.54478
6.28355
6.0322
5.79049
5.55819
5.33506
5.12083
4.91523
4.71797
4.52876
4.34731
4.17333
4.00654
3.84667
3.69345
3.54664
3.40598
3.27123
3.14216
3.01854
2.90015
2.78678
2.67822
2.57426
2.47472
2.3794
2.28811
2.20068
2.11693
2.0367
1.95983
1.88616
1.81556
1.74788
1.683
1.62079
1.56113
1.5039
1.44901
1.39634
1.3458
1.29729
1.25072
1.20601
1.16308
1.12185
1.08223
1.04421
1.00764
0.972794
0.940859
0.00215997
0.00508053
0.0175949
0.0572281
0.158298
0.371322
0.747946
1.32061
2.09017
3.01829
4.04354
5.10173
6.14191
7.13187
8.05572
8.91097
9.69603
10.4084
11.0534
11.6384
12.1703
12.6551
13.0953
13.4907
13.8492
14.1755
14.4732
14.7449
14.9929
15.219
15.4245
15.611
15.7796
15.931
16.0661
16.1851
16.2885
16.3761
16.4478
16.5036
16.5433
16.5665
16.5726
16.5608
16.5299
16.4788
16.406
16.3106
16.1915
16.0483
15.8808
15.689
15.4734
15.2342
14.9719
14.6876
14.3826
14.0589
13.7192
13.3664
13.0036
12.6337
12.2594
11.8826
11.5053
11.129
10.7549
10.3843
10.0185
9.6585
9.30541
8.96009
8.62325
8.29547
7.97716
7.66861
7.36999
7.08134
6.80264
6.5338
6.2747
6.02515
5.78499
5.554
5.33198
5.11868
4.91386
4.71726
4.5286
4.3476
4.174
4.00752
3.84791
3.6949
3.54825
3.40771
3.27306
3.14405
3.02047
2.9021
2.78873
2.68016
2.57618
2.4766
2.38123
2.28989
2.2024
2.11859
2.0383
1.96136
1.88763
1.81697
1.74923
1.68428
1.62201
1.56229
1.50501
1.45006
1.39733
1.34674
1.29818
1.25156
1.20681
1.16383
1.12256
1.08291
1.04485
1.00824
0.973387
0.941435
0.00157185
0.00139788
0.00137092
0.00178744
0.00362205
0.00994506
0.0290482
0.0786056
0.187826
0.393238
0.72788
1.20912
1.83191
2.57034
3.38598
4.24071
5.10293
5.94784
6.75963
7.52964
8.25393
8.93146
9.56407
10.154
10.6991
11.2011
11.663
12.0879
12.4787
12.834
13.1574
13.4534
13.7243
13.9721
14.198
14.4026
14.5864
14.7503
14.8945
15.0197
15.1259
15.2132
15.2815
15.3302
15.3586
15.3658
15.3509
15.3129
15.2509
15.1643
15.053
14.9168
14.7559
14.5705
14.3609
14.1278
13.8723
13.5961
13.3013
12.9905
12.6668
12.3327
11.9911
11.6441
11.2938
10.9419
10.5898
10.2392
9.89129
9.54737
9.20857
8.87592
8.55027
8.23234
7.92266
7.62167
7.32963
7.04672
6.77301
6.50852
6.2532
6.00694
5.76962
5.54111
5.32123
5.10978
4.90655
4.71132
4.52383
4.34385
4.17112
4.00539
3.84642
3.69395
3.54777
3.40762
3.27329
3.14456
3.0212
2.90301
2.78978
2.68132
2.57742
2.4779
2.38257
2.29125
2.20376
2.11995
2.03964
1.96268
1.88893
1.81823
1.75045
1.68547
1.62316
1.5634
1.50607
1.45108
1.39831
1.34767
1.29907
1.25241
1.20762
1.1646
1.1233
1.08361
1.04552
1.00888
0.974012
0.942047
0.00155823
0.00135752
0.00119299
0.00106146
0.000968634
0.000948769
0.00112586
0.00190139
0.00452884
0.0125864
0.0346037
0.0867557
0.193085
0.381092
0.673511
1.08085
1.59831
2.20723
2.88081
3.59135
4.31546
5.03598
5.74186
6.42651
7.08359
7.70899
8.30066
8.85796
9.38134
9.87358
10.3338
10.7617
11.1587
11.5265
11.8663
12.1759
12.4582
12.7156
12.9493
13.1604
13.3491
13.5157
13.6603
13.7832
13.8841
13.9623
14.0173
14.0483
14.0546
14.0356
13.9911
13.9209
13.8251
13.7037
13.5569
13.3852
13.1894
12.9708
12.7311
12.4726
12.1979
11.9096
11.6102
11.3021
10.9874
10.668
10.3458
10.0222
9.69881
9.37706
9.05823
8.74349
8.43384
8.13015
7.83313
7.54333
7.26119
6.98701
6.72101
6.46329
6.21392
5.9729
5.74019
5.51572
5.29937
5.09101
4.89049
4.69762
4.5122
4.33401
4.16285
3.99849
3.84071
3.68928
3.544
3.40463
3.27097
3.14281
3.01995
2.90218
2.78931
2.68114
2.57749
2.47817
2.38301
2.29182
2.20444
2.12071
2.04046
1.96355
1.88983
1.81915
1.75139
1.68641
1.62409
1.56432
1.50698
1.45197
1.39918
1.34852
1.29989
1.25321
1.20839
1.16534
1.12401
1.08429
1.04618
1.00952
0.974643
0.942671
0.00155464
0.00135479
0.0011909
0.00105542
0.000942591
0.000848178
0.000769993
0.000709811
0.000680226
0.000726686
0.000994929
0.00194038
0.00493457
0.0136352
0.0360706
0.0863503
0.184191
0.35105
0.603901
0.949842
1.38428
1.89296
2.45649
3.05546
3.67283
4.29517
4.91248
5.51746
6.10505
6.67287
7.21832
7.73906
8.23372
8.70163
9.14282
9.55928
9.94926
10.3122
10.6485
10.9588
11.2418
11.4977
11.7287
11.9357
12.119
12.2778
12.4118
12.5206
12.6038
12.6609
12.6917
12.696
12.6736
12.6247
12.5493
12.4476
12.3203
12.1683
11.993
11.7961
11.5799
11.3468
11.0991
10.8391
10.569
10.2908
10.0065
9.7177
9.42619
9.1335
8.84107
8.55023
8.26216
7.97787
7.69826
7.42405
7.15582
6.89405
6.63908
6.39119
6.15054
5.91725
5.6914
5.47299
5.26201
5.05839
4.86205
4.67287
4.4907
4.31538
4.14675
3.98461
3.82879
3.67908
3.5353
3.39725
3.26475
3.13761
3.01563
2.89862
2.78641
2.67882
2.57566
2.47677
2.38196
2.29108
2.20396
2.12045
2.04039
1.96363
1.89003
1.81946
1.75179
1.68688
1.62461
1.56488
1.50758
1.45259
1.39981
1.34916
1.30054
1.25385
1.20902
1.16597
1.12462
1.0849
1.04677
1.0101
0.975234
0.943265
0.00155312
0.00135383
0.00119113
0.00105665
0.000944356
0.000849672
0.000769128
0.000700097
0.000640642
0.000589589
0.000547153
0.000517173
0.000514419
0.000586804
0.000882737
0.00185888
0.00484957
0.0132486
0.0341524
0.0795227
0.165504
0.309195
0.523891
0.815294
1.18033
1.60863
2.0857
2.59632
3.12703
3.66755
4.20996
4.74786
5.27609
5.79068
6.28876
6.76924
7.23006
7.66934
8.08587
8.47904
8.84973
9.19736
9.52036
9.81844
10.0915
10.3366
10.5546
10.7466
10.9123
11.0512
11.1628
11.2471
11.3041
11.3336
11.3358
11.3107
11.2587
11.1805
11.0769
10.9496
10.8001
10.6306
10.4432
10.24
10.0232
9.79468
9.55653
9.31057
9.05859
8.80227
8.54318
8.28281
8.0225
7.76343
7.50665
7.25306
7.00343
6.7584
6.51846
6.28404
6.05547
5.83299
5.61679
5.40699
5.20369
5.00691
4.81666
4.63289
4.45552
4.28447
4.11963
3.96085
3.80801
3.66094
3.5195
3.38353
3.25285
3.12732
3.00676
2.89101
2.7799
2.67326
2.57095
2.47279
2.37862
2.2883
2.20166
2.11857
2.03887
1.96242
1.8891
1.81876
1.75128
1.68654
1.62442
1.56481
1.50761
1.45271
1.40001
1.34941
1.30084
1.25419
1.20939
1.16636
1.12504
1.08532
1.04721
1.01055
0.975713
0.943764
0.0015524
0.00135343
0.0011915
0.00105777
0.00094605
0.000851736
0.000771378
0.00070234
0.000642581
0.000590498
0.00054483
0.000504597
0.000469116
0.000438171
0.000412654
0.000396697
0.000404355
0.000479469
0.00075611
0.00164335
0.00431288
0.011665
0.0296161
0.0679827
0.13996
0.259674
0.438486
0.681827
0.988085
1.34982
1.75616
2.19527
2.6562
3.12986
3.60896
4.08805
4.56249
5.02826
5.48209
5.92145
6.34501
6.7514
7.13876
7.50565
7.85114
8.17606
8.47806
8.75532
9.00689
9.2302
9.42449
9.59107
9.73015
9.84138
9.92449
9.97966
10.0071
10.0072
9.98069
9.92848
9.85199
9.75282
9.6328
9.49385
9.33789
9.16687
8.9827
8.78724
8.58234
8.36972
8.15109
7.92803
7.702
7.47436
7.2463
7.0189
6.79309
6.56967
6.34933
6.13263
5.92006
5.71202
5.50881
5.31071
5.1179
4.93055
4.74874
4.57252
4.40193
4.23693
4.07749
3.92355
3.77502
3.6318
3.49379
3.36087
3.23292
3.10981
2.9914
2.87755
2.76813
2.663
2.562
2.46501
2.37187
2.28245
2.19662
2.11422
2.03514
1.95924
1.88638
1.81646
1.74935
1.68493
1.62309
1.56372
1.50673
1.45201
1.39947
1.34901
1.30055
1.25401
1.2093
1.16634
1.12508
1.08542
1.04736
1.01074
0.975967
0.944066
0.00155204
0.00135325
0.0011918
0.00105861
0.000947338
0.000853361
0.000773224
0.000704305
0.000644579
0.000592458
0.000546686
0.000506255
0.000470353
0.000438319
0.000409618
0.000383837
0.000360719
0.000340334
0.000323621
0.000314156
0.000323573
0.000387438
0.000613481
0.00132826
0.00346076
0.00930299
0.0235492
0.0540782
0.111694
0.208359
0.354322
0.555374
0.811575
1.1178
1.46551
1.84497
2.24691
2.66337
3.08774
3.51461
3.9397
4.35948
4.77078
5.17089
5.55761
5.92984
6.28553
6.62247
6.93887
7.23442
7.50749
7.75553
7.97736
8.17045
8.33429
8.47017
8.57835
8.65859
8.71122
8.73704
8.73707
8.71251
8.66479
8.59553
8.50641
8.39916
8.27556
8.13738
7.9864
7.82435
7.65296
7.47387
7.28864
7.09873
6.90546
6.71006
6.51362
6.3171
6.12132
5.92704
5.73487
5.54538
5.35901
5.17616
4.99716
4.82229
4.65174
4.48569
4.32425
4.16749
4.01547
3.86819
3.72565
3.58781
3.45463
3.32604
3.20196
3.08232
2.96702
2.85594
2.749
2.64608
2.54705
2.45181
2.36023
2.2722
2.18759
2.10629
2.02818
1.95313
1.88104
1.8118
1.74528
1.68139
1.62002
1.56107
1.50444
1.45005
1.39779
1.34758
1.29935
1.25299
1.20846
1.16565
1.12452
1.08498
1.04703
1.0105
0.975834
0.944019
0.00155184
0.00135316
0.00119201
0.0010592
0.000948276
0.000854587
0.000774662
0.000705882
0.00064623
0.00059413
0.000548336
0.00050785
0.000471867
0.00043973
0.000410897
0.00038492
0.000361428
0.000340108
0.000320703
0.000303018
0.000286952
0.000272626
0.000260789
0.000254101
0.000261042
0.000307295
0.000470241
0.00098454
0.00252351
0.0067781
0.0173031
0.0402676
0.0844887
0.160257
0.277052
0.441077
0.653798
0.912027
1.20921
1.53715
1.88771
2.25374
2.62931
3.00944
3.38991
3.76736
4.13865
4.5008
4.85112
5.18775
5.50864
5.81122
6.09348
6.35501
6.59407
6.80817
6.9961
7.15504
7.28565
7.38922
7.46651
7.51789
7.54452
7.54776
7.52903
7.48973
7.43141
7.35565
7.26408
7.15835
7.0401
6.91097
6.77254
6.62631
6.4737
6.31603
6.15452
5.99025
5.82421
5.65726
5.4902
5.32371
5.15838
4.99475
4.83328
4.67437
4.51833
4.36546
4.21597
4.07006
3.92785
3.78945
3.65494
3.52435
3.39772
3.27504
3.15629
3.04145
2.93046
2.82327
2.71982
2.62003
2.52381
2.43109
2.34177
2.25576
2.17296
2.09328
2.01661
1.94286
1.87192
1.8037
1.73811
1.67504
1.6144
1.55611
1.50007
1.44619
1.3944
1.3446
1.29674
1.25071
1.20646
1.16392
1.12302
1.08368
1.04592
1.00956
0.975077
0.943405
0.00155172
0.00135312
0.00119216
0.0010596
0.000948946
0.000855491
0.000775757
0.000707119
0.00064756
0.000595512
0.000549734
0.000509235
0.000473215
0.000441023
0.000412121
0.000386066
0.000362487
0.000341071
0.000321555
0.000303716
0.000287362
0.000272331
0.000258487
0.000245727
0.000234004
0.000223415
0.000214461
0.000208888
0.00021225
0.000241339
0.00034661
0.000681748
0.00169682
0.00456205
0.011846
0.0282248
0.0607432
0.118148
0.20919
0.34044
0.514635
0.730325
0.982718
1.26512
1.57034
1.89181
2.22394
2.56195
2.90159
3.23924
3.57159
3.89546
4.20797
4.50716
4.79089
5.0566
5.30226
5.52771
5.73054
5.90883
6.06188
6.1871
6.28676
6.36229
6.41472
6.44483
6.45393
6.44343
6.41476
6.36931
6.30859
6.23412
6.14741
6.04995
5.94317
5.82844
5.70703
5.58013
5.44882
5.3141
5.17687
5.03794
4.89803
4.7578
4.61783
4.47864
4.34068
4.20435
4.06997
3.93785
3.80821
3.68127
3.55717
3.43606
3.31803
3.20316
3.0915
2.98308
2.8779
2.77598
2.67728
2.58178
2.48945
2.40022
2.31405
2.23088
2.15064
2.07326
1.99866
1.92677
1.85751
1.7908
1.72656
1.6647
1.60516
1.54785
1.49269
1.4396
1.38852
1.33937
1.29207
1.24656
1.20277
1.16064
1.12011
1.08111
1.04365
1.00757
0.973361
0.941914
0.00155165
0.00135309
0.00119226
0.00105988
0.00094942
0.000856152
0.00077658
0.000708072
0.000648612
0.00059663
0.00055089
0.000510405
0.000474379
0.000442163
0.000413224
0.000387121
0.000363486
0.000342008
0.000322427
0.000304518
0.000288093
0.000272986
0.000259058
0.000246185
0.000234262
0.000223196
0.000212909
0.00020334
0.000194462
0.000186332
0.000179245
0.000174236
0.000174621
0.000190498
0.000252185
0.000452342
0.00106871
0.00285526
0.00756063
0.0185669
0.041306
0.0830186
0.151619
0.253893
0.393771
0.571497
0.783955
1.02575
1.29049
1.57184
1.8642
2.16269
2.46308
2.76171
3.05531
3.3407
3.615
3.87627
4.12212
4.35012
4.55853
4.74781
4.91541
5.06036
5.18236
5.27992
5.35543
5.41025
5.44544
5.46188
5.46088
5.44384
5.41213
5.3671
5.31009
5.24245
5.16546
5.08033
4.98822
4.89018
4.7872
4.68017
4.56994
4.45725
4.3428
4.22721
4.11103
3.99478
3.87889
3.76376
3.64973
3.53709
3.42611
3.31699
3.20993
3.10507
3.00255
2.90246
2.80488
2.70986
2.61745
2.52766
2.44051
2.35599
2.27409
2.19479
2.11805
2.04384
1.97211
1.90281
1.8359
1.77131
1.70898
1.64886
1.59089
1.53499
1.48111
1.42918
1.37913
1.33092
1.28447
1.23973
1.19664
1.15513
1.11517
1.07668
1.03968
1.00402
0.970229
0.939121
0.00155161
0.00135308
0.00119233
0.00106007
0.000949756
0.000856631
0.000777192
0.000708799
0.000649432
0.000597521
0.00055183
0.000511375
0.000475361
0.000443143
0.00041419
0.000388063
0.000364394
0.000342878
0.000323252
0.000305295
0.000288818
0.000273659
0.000259677
0.00024675
0.000234771
0.000223647
0.000213298
0.000203651
0.000194642
0.000186217
0.000178326
0.000170932
0.000164014
0.000157597
0.000151838
0.000147297
0.000145792
0.000152931
0.000185561
0.000295091
0.000638758
0.00166408
0.00447833
0.0113853
0.0263813
0.0552465
0.104919
0.182127
0.291719
0.43543
0.611664
0.816184
1.04326
1.28684
1.54135
1.80191
2.06431
2.32498
2.58061
2.82801
3.06438
3.28805
3.49677
3.68868
3.86278
4.01957
4.15702
4.27466
4.37223
4.44902
4.50711
4.54783
4.57224
4.58126
4.57614
4.55816
4.52853
4.48842
4.43893
4.38116
4.31612
4.24477
4.16801
4.08665
4.00147
3.91317
3.82239
3.72974
3.63575
3.5409
3.44562
3.35031
3.25531
3.16092
3.06741
2.97502
2.88394
2.79435
2.70639
2.62019
2.53584
2.45343
2.37302
2.29465
2.21835
2.14416
2.07208
2.00211
1.93423
1.86844
1.80472
1.74303
1.68334
1.62561
1.5698
1.51588
1.46379
1.41348
1.36492
1.31805
1.27281
1.22917
1.18708
1.14648
1.10735
1.0696
1.0333
0.998261
0.965063
0.934448
0.00155159
0.00135308
0.00119238
0.00106021
0.000949995
0.000856979
0.000777645
0.000709348
0.000650063
0.00059822
0.000552582
0.000512164
0.000476175
0.000443969
0.000415017
0.000388882
0.000365198
0.000343659
0.000324006
0.000306018
0.000289507
0.00027431
0.000260289
0.000247321
0.0002353
0.000224135
0.000213743
0.000204054
0.000195003
0.000186534
0.000178598
0.000171149
0.000164149
0.000157561
0.000151353
0.000145501
0.000139987
0.000134819
0.000130069
0.000126013
0.000123566
0.000125596
0.000140775
0.00019544
0.000371174
0.000911378
0.00246342
0.00649205
0.0157698
0.0346776
0.0689853
0.124937
0.207812
0.320532
0.462975
0.632216
0.823419
1.03097
1.24933
1.47351
1.69921
1.92297
2.14163
2.35237
2.55285
2.74169
2.91705
3.07753
3.22258
3.35248
3.46575
3.56209
3.6415
3.70345
3.74986
3.78197
3.80084
3.80726
3.80231
3.78704
3.76249
3.72958
3.68921
3.64223
3.58946
3.53164
3.46948
3.40364
3.33472
3.26329
3.18983
3.11483
3.03871
2.96184
2.88457
2.80721
2.73004
2.65328
2.57717
2.50189
2.4276
2.35443
2.28252
2.21196
2.14283
2.0752
2.00913
1.94467
1.88183
1.82065
1.76114
1.7033
1.64712
1.59261
1.53973
1.48848
1.43883
1.39075
1.34422
1.29919
1.25565
1.21355
1.17286
1.13354
1.09557
1.05889
1.02356
0.989411
0.95705
0.927134
0.00155157
0.00135307
0.00119241
0.0010603
0.000950165
0.000857231
0.000777979
0.00070976
0.000650545
0.000598763
0.000553175
0.000512798
0.000476838
0.000444652
0.000415711
0.000389579
0.000365892
0.000344344
0.000324676
0.00030667
0.000290137
0.000274916
0.000260868
0.000247871
0.00023582
0.000224624
0.0002142
0.000204478
0.000195395
0.000186893
0.000178924
0.000171444
0.000164411
0.00015779
0.000151549
0.000145659
0.000140094
0.000134829
0.000129844
0.000125121
0.000120646
0.000116417
0.000112463
0.000108906
0.000106169
0.000105603
0.000111374
0.000136102
0.00021896
0.000481211
0.00126889
0.00343638
0.00875748
0.0203077
0.0425426
0.0808268
0.140381
0.224965
0.335846
0.471523
0.628234
0.800956
0.98436
1.17349
1.36415
1.55306
1.73744
1.9149
2.08356
2.24215
2.38915
2.52343
2.64455
2.75293
2.84738
2.92777
2.99438
3.04647
3.08577
3.1134
3.13028
3.13715
3.13481
3.1241
3.10585
3.08084
3.04976
3.0133
2.97209
2.92675
2.87783
2.82584
2.77128
2.71458
2.65615
2.59636
2.53555
2.47402
2.41205
2.34989
2.28776
2.22586
2.16437
2.10343
2.04319
1.98376
1.92525
1.86774
1.81131
1.75602
1.70192
1.64905
1.59744
1.54711
1.49808
1.45036
1.40394
1.35882
1.315
1.27247
1.2312
1.19118
1.1524
1.11483
1.07846
1.04325
1.00927
0.976359
0.945144