/*--------------------------------*- C++ -*----------------------------------*\
| =========                 |                                                 |
| \\      /  F ield         | OpenFOAM: The Open Source CFD Toolbox           |
|  \\    /   O peration     | Version:  1.7.x                                 |
|   \\  /    A nd           | Web:      www.OpenFOAM.com                      |
|    \\/     M anipulation  |                                                 |
\*---------------------------------------------------------------------------*/
FoamFile
{
    version     2.0;
    format      ascii;
    class       volScalarField;
    location    "50";
    object      epsilon;
}
// * * * * * * * * * * * * * * * * * * * * * * * * * * * * * * * * * * * * * //

dimensions      [0 2 -3 0 0 0 0];

internalField   nonuniform List<scalar> 
52875
(
2081.26
295.721
40.3334
5.95589
1.05954
0.251266
0.0758865
0.0258623
0.0100053
0.00488595
0.00312453
0.00243739
0.00213615
0.00199276
0.00192042
0.00188201
0.00186036
0.00184717
0.00183838
0.00183192
0.0018268
0.0018225
0.00181877
0.00181549
0.00181254
0.00180991
0.00180762
0.00180568
0.00180411
0.00180294
0.00180215
0.00180173
0.00180165
0.00180185
0.0018023
0.00180298
0.00180384
0.0018049
0.00180613
0.00180754
0.0018091
0.00181085
0.00181284
0.00181523
0.00181835
0.00182289
0.00183016
0.00184266
0.00186508
0.00190636
0.00198382
0.00213252
0.00242833
0.00305158
0.00447437
0.00800473
0.0172296
0.0419387
0.112069
0.347041
1.38191
7.13794
44.4268
307.139
2107.55
1935.46
412.934
95.3501
19.4513
3.56933
0.686031
0.170637
0.0569021
0.0247449
0.0153465
0.0131191
0.0131667
0.0138107
0.0144048
0.0146852
0.0145566
0.0140132
0.0131027
0.011907
0.0105268
0.00906942
0.00763658
0.00631511
0.00516849
0.00423236
0.00351435
0.00300174
0.00266879
0.00249013
0.00245326
0.002563
0.0028442
0.00334157
0.00411447
0.00522337
0.00671189
0.00859277
0.0108434
0.0134073
0.0161979
0.0191068
0.0220099
0.0247723
0.0272558
0.0293247
0.0308542
0.0317389
0.031903
0.0313118
0.0299839
0.0280074
0.0255647
0.0229872
0.0208874
0.0205076
0.024718
0.0410554
0.0922737
0.269499
1.04835
4.93757
23.8589
105.889
428.485
1932.17
1732.07
524.033
197.159
69.924
23.2667
9.44793
6.22511
5.91883
6.42288
7.12531
7.80094
8.34879
8.72059
8.8965
8.87451
8.66455
8.28469
7.75842
7.11278
6.37698
5.58149
4.75739
3.9357
3.14682
2.41974
1.78122
1.25523
0.863786
0.63035
0.580739
0.726144
1.0502
1.52645
2.1308
2.84125
3.63659
4.49628
5.40078
6.3312
7.26872
8.19644
9.09797
9.95686
10.7559
11.4767
12.0992
12.6019
12.9619
13.1565
13.1649
12.97
12.5619
11.9412
11.1236
10.1467
9.08205
8.0642
7.38012
7.8083
12.0252
29.1218
82.1576
215.302
539.961
1707.51
1993.04
721.1
373.09
228.902
164.038
133.977
119.024
110.725
105.391
101.317
97.6886
94.1122
90.415
86.5397
82.4901
78.2996
74.0124
69.6725
65.3172
60.9756
56.6719
52.4311
48.2857
44.2821
40.4883
37.0013
33.9525
31.5038
29.8228
29.0305
29.1449
30.0668
31.6215
33.6175
35.886
38.2985
40.7715
43.2654
45.7787
48.3382
50.9877
53.7771
56.7574
59.9746
63.4632
67.2389
71.2941
75.5967
80.0887
84.6852
89.279
93.753
98.0021
101.967
105.679
109.332
113.396
118.843
127.649
143.957
176.83
245.907
392.284
728.206
1920.67
2522.05
920.44
545.657
403.964
335.879
297.393
272.519
254.406
239.787
227.009
215.221
204.001
193.163
182.646
172.458
162.63
153.204
144.217
135.697
127.657
120.094
113
106.377
100.25
94.676
89.7481
85.599
82.3858
80.2538
79.2746
79.4019
80.4792
82.2689
84.4948
86.8976
89.29
91.5897
93.8225
96.0996
98.5826
101.45
104.88
109.04
114.096
120.203
127.49
136.069
146.017
157.358
170.035
183.902
198.723
214.203
230.041
246.004
262.044
278.44
296.016
316.521
343.412
383.763
453.552
595.412
963.107
2526.97
2768.16
1013.22
636.661
497.433
428.739
387.987
360.163
338.823
320.848
304.623
289.313
274.509
260.052
245.922
232.166
218.863
206.093
193.932
182.451
171.71
161.755
152.617
144.321
136.905
130.435
125.004
120.73
117.733
116.089
115.775
116.653
118.491
120.981
123.786
126.604
129.242
131.651
133.922
136.244
138.859
142.012
145.941
150.881
157.065
164.706
174.002
185.137
198.263
213.464
230.729
249.929
270.819
293.062
316.278
340.122
364.416
389.313
415.545
444.829
480.658
530.217
609.861
764.874
1169.93
3040.38
2694.57
994.333
639.487
509.422
445.262
407.122
380.988
360.811
343.627
327.882
312.758
297.858
283.041
268.311
253.756
239.498
225.664
212.381
199.769
187.944
177.018
167.096
158.277
150.659
144.356
139.497
136.215
134.599
134.649
136.236
139.104
142.888
147.14
151.395
155.266
158.534
161.19
163.41
165.496
167.801
170.669
174.426
179.38
185.835
194.068
204.338
216.889
231.924
249.562
269.796
292.479
317.312
343.873
371.668
400.236
429.292
458.934
489.923
524.124
565.343
621.325
709.491
877.828
1312.93
3359.5
2471.92
915.356
592.955
475.776
418.47
384.712
361.75
344.069
328.95
314.959
301.336
287.718
273.98
260.147
246.327
232.668
219.328
206.464
194.233
182.791
172.299
162.926
154.846
148.24
143.301
140.216
139.142
140.147
143.158
147.939
154.085
161.039
168.145
174.758
180.386
184.796
188.049
190.457
192.485
194.64
197.398
201.178
206.364
213.321
222.374
233.814
247.912
264.88
284.825
307.697
333.268
361.129
390.721
421.41
452.605
483.936
515.478
548.058
583.711
626.544
684.789
776.756
952.473
1406.47
3555.76
2228.91
824.359
533.047
427.755
376.645
346.754
326.529
310.978
297.645
285.238
273.079
260.847
248.44
235.896
223.326
210.885
198.738
187.055
176.01
165.783
156.572
148.595
142.092
137.322
134.557
134.049
135.981
140.398
147.149
155.857
165.911
176.499
186.718
195.743
203.011
208.329
211.894
214.208
215.931
217.742
220.233
223.899
229.173
236.449
246.064
258.305
273.428
291.624
312.961
337.336
364.452
393.826
424.832
456.779
489.047
521.268
553.554
586.812
623.202
667.03
726.858
821.637
1003.02
1471.66
3695.73
2024.63
746.38
478.903
382.236
335.441
308.137
289.676
275.472
263.286
251.949
240.856
229.725
218.472
207.134
195.816
184.662
173.829
163.488
153.817
145.013
137.3
130.933
126.207
123.442
122.972
125.093
129.991
137.661
147.842
159.98
173.242
186.595
198.976
209.507
217.672
223.413
227.105
229.424
231.169
233.096
235.825
239.85
245.586
253.4
263.572
276.321
291.827
310.197
331.41
355.286
381.474
409.482
438.729
468.629
498.718
528.809
559.198
590.942
626.299
669.62
729.483
824.894
1007.77
1480.12
3718.32
1874.64
688.358
437.15
346.023
301.852
276.027
258.52
245.032
233.478
222.783
212.396
202.059
191.692
181.32
171.033
160.955
151.235
142.035
133.541
125.963
119.551
114.599
111.449
110.481
112.08
116.569
124.115
134.63
147.697
162.548
178.12
193.197
206.633
217.574
225.634
230.944
234.073
235.851
237.161
238.774
241.28
245.127
250.689
258.274
268.096
280.316
295.058
312.372
332.194
354.325
378.439
404.116
430.895
458.353
486.203
514.436
543.494
574.524
609.817
653.694
714.674
811.721
996.882
1473.06
3721.25
1767.48
647.356
406.978
319.265
276.625
251.626
234.642
221.561
210.401
200.144
190.267
180.521
170.82
161.175
151.657
142.377
133.471
125.103
117.466
110.789
105.35
101.483
99.5799
100.076
103.401
109.893
119.675
132.542
147.896
164.756
181.866
197.891
211.665
222.419
229.922
234.492
236.861
237.972
238.748
239.944
242.11
245.65
250.895
258.107
267.452
279.054
293.002
309.315
327.906
348.579
371.038
394.925
419.87
445.561
471.839
498.813
527.023
557.683
593.111
637.622
699.724
798.432
986.099
1467.09
3728.23
1693.02
618.971
385.63
299.937
258.149
233.605
216.929
204.122
193.259
183.352
173.887
164.612
155.429
146.333
137.382
128.676
120.346
112.561
105.524
99.4857
94.7534
91.6998
90.7647
92.4332
97.1713
105.312
116.914
131.642
148.721
166.993
185.066
201.547
215.295
225.64
232.491
236.31
237.95
238.419
238.66
239.407
241.176
244.336
249.186
255.955
264.78
275.759
288.96
304.389
321.96
341.489
362.714
385.329
409.028
433.578
458.896
485.165
512.982
543.597
579.338
624.522
687.665
787.857
977.783
1463.22
3737.47
1642.2
599.901
370.804
286.106
244.688
220.353
203.858
191.253
180.636
171.026
161.906
153.014
144.24
135.565
127.038
118.751
110.836
103.465
96.8534
91.2697
87.0443
84.5815
84.3585
86.8967
92.6814
102.027
114.922
130.912
149.087
168.168
186.694
203.257
216.759
226.615
232.841
235.995
237.001
236.901
236.633
236.907
238.206
240.867
245.16
251.285
259.351
269.434
281.586
295.802
312
330.02
349.641
370.614
392.711
415.78
439.823
465.095
492.245
522.545
558.317
603.834
667.543
768.441
959.111
1445.08
3711.54
1606.76
587.126
360.818
276.648
235.397
211.166
194.784
182.325
171.892
162.502
153.631
145.008
136.512
128.118
119.867
111.847
104.195
97.0871
90.7477
85.4578
81.5667
79.5041
79.7797
82.949
89.5209
99.8051
113.742
130.795
149.949
169.821
188.864
205.615
218.958
228.328
233.791
235.978
235.879
234.591
233.084
232.078
232.053
233.34
236.201
240.838
247.369
255.888
266.47
279.146
293.879
310.566
329.05
349.144
370.674
393.529
417.733
443.546
471.602
503.151
540.487
587.872
653.779
757.33
951.534
1443.47
3726.02
1582.79
579.408
354.932
270.997
229.769
205.548
189.197
176.794
166.442
157.154
148.399
139.899
131.529
123.259
115.126
107.224
99.6902
92.7077
86.51
81.3895
77.7128
75.9355
76.603
80.3126
87.6088
98.8112
113.829
132.051
152.354
173.24
193.04
210.194
223.524
232.455
237.091
238.138
236.682
233.907
230.856
228.303
226.757
226.562
227.984
231.232
236.444
243.729
253.182
264.865
278.78
294.867
313.011
333.06
354.865
378.322
403.45
430.487
460.045
493.353
532.707
582.406
651.047
758.071
957.359
1459.11
3775.74
1569.94
576.068
352.451
268.436
227.059
202.716
186.277
173.814
163.422
154.109
145.339
136.83
128.453
120.176
112.039
104.137
96.6136
89.6586
83.5132
78.4815
74.9476
73.395
74.4085
78.632
86.6495
98.7904
114.928
134.368
155.879
177.838
198.461
216.09
229.489
238.068
241.969
241.969
239.245
235.079
230.603
226.661
223.81
222.41
222.729
224.983
229.318
235.848
244.676
255.882
269.493
285.477
303.742
324.151
346.558
370.849
397.017
425.273
456.198
491
531.976
583.469
654.197
763.885
967.182
1477
3824.05
1566.73
576.125
352.355
267.915
226.19
201.581
184.931
172.297
161.762
152.327
143.449
134.844
126.379
118.024
109.82
101.864
94.3063
87.3404
81.2156
76.247
72.8364
71.4958
72.8501
77.5877
86.3225
99.3767
116.566
137.102
159.644
182.461
203.682
221.59
234.922
243.096
246.291
245.345
241.507
236.132
230.421
225.277
221.292
218.842
218.192
219.554
223.078
228.876
237.053
247.699
260.862
276.538
294.662
315.121
337.784
362.54
389.377
418.483
450.412
486.344
528.552
581.373
653.554
764.937
970.52
1484.5
3844.98
1573.19
579.012
353.961
268.719
226.44
201.419
184.448
171.552
160.798
151.175
142.135
133.387
124.797
116.335
108.044
100.026
92.4336
85.4647
79.3713
74.475
71.1933
70.0655
71.7554
76.9902
86.3949
100.257
118.312
139.668
162.886
186.167
207.6
225.458
238.496
246.162
248.672
246.901
242.134
235.763
229.026
222.864
217.898
214.515
212.979
213.497
216.223
221.267
228.734
238.719
251.29
266.464
284.203
304.416
326.986
351.809
378.867
408.331
440.729
477.204
519.988
573.377
646.066
757.833
963.562
1477.06
3831.09
1589.01
584.622
357.014
270.55
227.515
201.962
184.586
171.368
160.351
150.507
141.278
132.37
123.644
115.07
106.696
98.6256
91.0138
84.0603
78.0178
73.2132
70.078
69.176
71.1994
76.8921
86.8679
101.358
120.005
141.822
165.298
188.605
209.84
227.312
239.828
246.89
248.751
246.301
240.826
233.718
226.221
219.288
213.559
209.43
207.163
206.962
208.984
213.341
220.134
229.464
241.409
256.007
273.239
293.036
315.293
339.912
366.866
396.311
428.743
465.266
508.06
561.352
633.743
744.853
949.217
1459.39
3794.34
1614.29
593.126
361.557
273.394
229.387
203.188
185.342
171.765
160.463
150.389
140.972
131.908
123.056
114.387
105.95
97.8517
90.2465
83.332
77.3594
72.6591
69.6753
68.9939
71.3273
77.4171
87.8323
102.717
121.609
143.439
166.661
189.465
210.013
226.715
238.473
244.856
246.143
243.209
237.302
229.771
221.831
214.427
208.203
203.564
200.774
200.034
201.505
205.302
211.525
220.275
231.637
245.664
262.353
281.65
303.46
327.688
354.297
383.426
415.539
451.697
494.022
546.657
618.075
727.658
929.391
1433.79
3739.7
1647.64
604.149
367.369
277.069
231.9
204.962
186.604
172.654
161.072
150.783
141.2
132.01
123.069
114.345
105.888
97.8064
90.2496
83.4093
77.5319
72.9492
70.1151
69.6308
72.2158
78.5855
89.2362
104.207
122.937
144.298
166.746
188.531
207.926
223.473
234.196
239.747
240.428
237.082
230.892
223.128
214.949
207.264
200.709
195.691
192.479
191.271
192.23
195.479
201.119
209.253
219.975
233.35
249.399
268.087
289.338
313.064
339.228
367.951
399.666
435.383
477.154
529.02
599.295
707.072
905.673
1403.16
3673.77
1686.67
616.853
373.938
281.198
234.749
207.029
188.152
173.839
161.999
151.528
141.819
132.549
123.569
114.847
106.431
98.4243
90.9704
84.2511
78.5067
74.0682
71.3917
71.0802
73.8421
80.342
90.9792
105.681
123.807
144.202
165.361
185.632
203.431
217.457
226.875
231.426
231.432
227.692
221.299
213.428
205.153
197.337
190.597
185.34
181.837
180.283
180.843
183.649
188.807
196.424
206.598
219.411
234.901
253.054
273.806
297.075
322.819
351.134
382.421
417.637
458.759
509.726
578.685
684.418
879.501
1369.19
3600.1
1729.07
630.336
380.71
285.377
237.616
209.12
189.745
175.1
163.037
152.42
142.627
133.325
124.359
115.696
107.38
99.51
92.2187
85.6784
80.1249
75.8858
73.4105
73.2855
76.1822
82.6816
93.0578
107.12
124.165
143.048
162.342
180.531
196.209
208.262
216.019
219.324
218.525
214.372
207.854
200.03
191.872
184.175
177.523
172.312
168.806
167.195
167.635
170.264
175.194
182.534
192.392
204.859
219.989
237.784
258.194
281.136
306.557
334.527
365.407
400.1
440.513
490.481
557.996
661.541
852.972
1334.66
3524.93
1773.21
643.923
387.266
289.304
240.257
211.029
191.199
176.261
164.012
153.286
143.446
134.152
125.244
116.686
108.52
100.837
93.762
87.4605
82.1638
78.1927
75.9784
76.0652
79.0419
85.352
95.103
107.978
123.239
139.8
156.374
171.641
184.429
193.864
199.475
201.234
199.519
195.022
188.61
181.19
173.593
166.509
160.458
155.804
152.791
151.593
152.352
155.202
160.267
167.664
177.507
189.898
204.909
222.56
242.814
265.591
290.828
318.569
349.135
383.375
423.127
472.134
538.24
639.656
827.575
1301.72
3453.48
1817.45
656.943
393.205
292.687
242.442
212.556
192.332
177.149
164.752
153.951
144.095
134.837
126.015
117.589
109.597
102.125
95.2881
89.2462
84.2216
80.5161
78.5183
78.6842
81.4495
87.0525
95.4091
106.105
118.436
131.463
144.131
155.413
164.45
170.662
173.809
173.989
171.588
167.198
161.508
155.218
148.963
143.276
138.571
135.154
133.243
132.997
134.548
138.028
143.574
151.324
161.406
173.943
189.024
206.697
226.947
249.707
274.911
302.587
333.017
367.002
406.311
454.597
519.574
619.216
804.158
1271.99
3390.04
1859.71
668.732
398.16
295.27
243.96
213.514
192.965
177.59
165.084
154.236
144.383
135.173
126.44
118.137
110.296
102.993
96.3304
90.4526
85.5557
81.8951
79.775
79.509
81.33
85.2657
91.102
98.43
106.684
115.175
123.172
130.005
135.164
138.357
139.526
138.828
136.581
133.205
129.156
124.884
120.798
117.248
114.529
112.879
112.495
113.542
116.164
120.503
126.715
134.961
145.399
158.168
173.381
191.107
211.358
234.089
259.242
286.839
317.14
350.906
389.847
437.538
501.571
599.713
782.126
1244.5
3333.18
1897.47
678.707
401.87
296.875
244.661
213.76
192.959
177.439
164.856
153.978
144.134
134.964
126.293
118.067
110.304
103.06
96.4183
90.4887
85.4207
81.3982
78.6191
77.2544
77.3793
78.9131
81.6397
85.2586
89.4041
93.6589
97.6018
100.872
103.219
104.528
104.813
104.193
102.86
101.045
98.9933
96.9434
95.1206
93.7335
92.9765
93.0351
94.0896
96.3169
99.8895
104.977
111.752
120.397
131.094
144.003
159.25
176.919
197.04
219.588
244.52
271.864
301.871
335.272
373.734
420.757
483.82
580.492
760.504
1217.85
3278.66
1928.91
686.575
404.261
297.462
244.503
213.241
192.249
176.624
163.986
153.089
143.251
134.103
125.463
117.26
109.494
102.201
95.4309
89.256
83.7733
79.1
75.3553
72.629
70.9403
70.213
70.3055
71.0455
72.2342
73.648
75.0634
76.2931
77.2113
77.7602
77.9443
77.8151
77.4562
76.9693
76.466
76.0623
75.8783
76.0396
76.681
77.9497
80.0092
83.0385
87.2282
92.7722
99.8623
108.692
119.454
132.324
147.436
164.878
184.685
206.846
231.334
258.186
287.653
320.451
358.21
404.367
466.288
561.347
738.835
1190.97
3223.1
1953.49
692.326
405.408
297.099
243.534
211.99
190.854
175.153
162.48
151.572
141.739
132.606
123.977
115.771
107.968
100.58
93.6326
87.1629
81.2297
75.9089
71.283
67.4214
64.3527
62.0491
60.4447
59.4555
58.979
58.8897
59.0538
59.3518
59.695
60.0301
60.3356
60.6159
60.8937
61.2058
61.5999
62.1348
62.8806
63.9221
65.3614
67.3215
69.9495
73.4176
77.9192
83.6587
90.84
99.6624
110.321
122.997
137.827
154.897
174.247
195.872
219.752
245.935
274.677
306.685
343.56
388.68
449.312
542.639
717.489
1164.16
3166.15
1971.9
696.225
405.507
295.939
241.878
210.111
188.866
173.112
160.417
149.508
139.687
130.572
121.96
113.757
105.928
98.4695
91.3854
84.6916
78.423
72.635
67.3989
62.7886
58.8597
55.6296
53.0827
51.1823
49.8699
49.0611
48.6554
48.5541
48.6754
48.9592
49.3675
49.8803
50.4929
51.2133
52.0621
53.0722
54.2913
55.7836
57.6334
59.948
62.8615
66.5362
71.1603
76.9389
84.079
92.7812
103.238
115.629
130.091
146.707
165.514
186.508
209.68
235.088
262.992
294.097
329.979
373.966
433.222
524.733
696.876
1137.95
3108.93
1985.31
698.651
404.801
294.173
239.697
207.748
186.417
170.625
157.92
147.02
137.222
128.138
119.559
111.383
103.566
96.0897
88.947
82.1388
75.6858
69.6328
64.047
59.0101
54.5995
50.8643
47.8193
45.4513
43.7212
42.5615
41.8841
41.5967
41.617
41.8804
42.3398
42.9645
43.7378
44.6554
45.7256
46.9695
48.4235
50.1408
52.1949
54.6826
57.7279
61.4837
66.1308
71.8691
78.9035
87.4319
97.6426
109.709
123.766
139.894
158.124
178.456
200.885
225.477
252.5
282.655
317.499
360.316
418.179
507.894
677.401
1112.98
3052.74
1994.92
700.006
403.537
291.992
237.155
205.048
183.646
167.827
155.121
144.239
134.475
125.437
116.911
108.791
101.024
93.5861
86.4588
79.6342
73.1231
66.9621
61.2147
55.9658
51.3059
47.3051
43.9975
41.3835
39.4338
38.0893
37.2679
36.8799
36.8425
37.0879
37.5652
38.2386
39.0859
40.0972
41.2748
42.6342
44.205
46.0338
48.1871
50.7542
53.851
57.6222
62.2407
67.8993
74.7975
83.1282
93.0738
104.802
118.443
134.075
151.727
171.396
193.084
216.865
243.012
272.225
306.045
347.716
404.231
492.233
659.237
1089.48
2998.55
2001.68
700.614
401.921
289.558
234.393
202.143
180.679
164.839
152.14
141.285
131.564
122.585
114.132
106.091
98.408
91.0505
83.9949
77.2254
70.7447
64.5816
58.7942
53.4663
48.6941
44.5614
41.1164
38.3693
36.2975
34.8474
33.9412
33.4909
33.4137
33.6401
34.1171
34.8066
35.6838
36.7361
37.9629
39.3761
41.0014
42.8812
45.0766
47.6713
50.7745
54.5239
59.0843
64.641
71.3864
79.5076
89.1809
100.568
113.796
128.94
146.027
165.055
186.032
209.037
234.35
262.669
295.524
336.121
391.385
477.814
642.533
1067.8
2947.29
2006.35
700.736
400.115
287.001
231.527
199.141
177.619
161.764
149.077
138.256
128.589
119.68
111.313
103.371
95.7942
88.5475
81.6011
74.933
68.5389
62.4401
56.6873
51.3603
46.5566
42.3682
38.8546
36.0346
33.8912
32.3756
31.4137
30.9193
30.8098
31.0151
31.481
32.1684
33.0514
34.1161
35.3603
36.7937
38.4396
40.3369
42.5429
45.1364
48.221
51.9277
56.4139
61.8569
68.442
76.3497
85.7505
96.8002
109.624
124.295
140.84
159.26
179.567
201.846
226.385
253.881
285.852
325.476
379.617
464.645
627.326
1047.99
2899.57
2009.56
700.565
398.238
284.418
228.645
196.127
174.551
158.685
146.016
135.236
125.631
116.802
108.531
100.7
93.2462
86.1286
79.3134
72.7733
66.4978
60.5008
54.8256
49.5457
44.7568
40.5558
37.0113
34.1503
31.9614
30.4002
29.3959
28.8644
28.7235
28.9031
29.3488
30.021
30.8936
31.9523
33.194
34.6272
36.2732
38.1684
40.3667
42.9428
45.9952
49.6485
54.0531
59.3785
65.8025
73.4993
82.6339
93.3572
105.792
120.011
136.043
153.892
173.575
195.187
219.018
245.769
276.948
315.71
368.867
452.679
613.596
1030.13
2855.68
2011.84
700.256
396.38
281.882
225.814
193.166
171.54
155.668
143.023
132.292
122.756
114.016
105.85
98.1391
90.8158
83.8366
77.1629
70.7627
64.6201
58.7424
53.1655
47.9561
43.2061
39.0146
35.4581
32.5711
30.348
28.7487
27.7056
27.1366
26.9602
27.1067
27.5219
28.1665
29.0149
30.0527
31.2767
32.6946
34.3264
36.2063
38.3853
40.9341
43.9466
47.5414
51.8617
57.0699
63.3364
70.8295
79.7088
90.121
102.187
115.98
131.532
148.849
167.957
188.956
212.146
238.229
268.707
306.714
359.021
441.794
601.192
1013.99
2815.42
2013.6
699.92
394.602
279.443
223.083
190.306
168.632
152.761
140.149
129.474
120.016
111.371
103.317
95.73
88.5415
81.7033
75.1727
68.9138
62.9061
57.1512
51.6782
46.5469
41.8448
37.6715
34.1095
31.2008
28.9456
27.3081
26.2237
25.6119
25.3925
25.4962
25.8695
26.4741
27.2852
28.289
29.4824
30.8728
32.4793
34.334
36.4853
39.0003
41.9681
45.5016
49.7375
54.8307
60.9452
68.2434
76.8801
86.9982
98.7171
112.112
127.216
144.042
162.62
183.061
205.671
231.156
261.015
298.365
349.942
431.833
589.933
999.397
2778.42
2015.17
699.638
392.944
277.133
220.48
187.576
165.86
149.995
137.423
126.814
117.44
108.897
100.958
93.4989
86.4456
79.7465
73.355
67.2318
61.3528
55.7151
50.3417
45.2861
40.631
36.4754
32.9069
29.9743
27.6838
26.0037
24.8722
24.2105
23.9391
23.9899
24.3105
24.864
25.6265
26.5855
27.7382
29.0919
30.6646
32.487
34.6047
37.0813
40.0012
43.4719
47.6236
52.6044
58.5721
65.6838
74.0901
83.9304
95.3227
108.344
123.031
139.402
157.493
177.423
199.507
224.455
253.765
290.54
341.489
422.628
579.609
986.027
2744.23
2016.78
699.463
391.429
274.968
218.02
184.991
163.237
147.386
134.861
124.324
115.041
106.605
98.7849
91.4533
84.5331
77.9683
71.7084
65.7115
59.9507
54.4194
49.1357
44.1474
39.5328
35.3896
31.8093
28.8474
26.5159
24.7873
23.6022
22.8833
22.552
22.5416
22.8011
23.295
24.0011
24.9078
26.0129
27.3236
28.8571
30.6425
32.7226
35.1577
38.0276
41.4344
45.502
50.3723
56.1974
63.1296
71.3156
80.8918
91.9754
104.646
118.942
134.889
152.529
171.99
193.593
218.055
246.873
283.142
333.546
414.04
570.057
973.721
2712.51
2018.63
699.427
390.063
272.95
215.706
182.552
160.764
144.932
132.462
122.002
112.816
104.489
96.7893
89.5846
82.794
76.3572
70.2201
64.3385
58.6837
53.2461
48.0398
43.1081
38.5249
34.3866
30.7879
27.7905
25.4121
23.6293
22.3851
21.6034
21.2069
21.1298
21.3231
21.7529
22.3983
23.2489
24.303
25.5676
27.059
28.8046
30.8448
33.2362
36.0544
39.3962
43.3794
48.1403
53.8254
60.5832
68.5568
77.8801
88.6694
101.007
114.936
130.485
147.704
166.728
187.888
211.906
240.279
276.097
326.022
405.959
561.131
962.263
2682.94
2020.8
699.545
388.846
271.075
213.532
180.255
158.435
142.626
130.213
119.836
110.748
102.532
94.9528
87.8729
81.2075
74.8919
68.8685
63.0916
57.5308
52.1744
47.0336
42.1476
37.5867
33.4458
29.8225
26.784
24.3538
22.5128
21.2062
20.3589
19.8946
19.7492
19.875
20.2399
20.8242
21.6183
22.621
23.8389
25.2874
26.992
28.9909
31.3372
34.1023
37.3777
41.2759
45.9276
51.4744
58.0612
65.8282
74.907
85.4133
97.4321
111.012
126.185
143.008
161.624
182.371
205.977
233.943
269.353
318.853
398.302
552.735
951.553
2655.3
2023.38
699.824
387.769
269.334
211.488
178.086
156.237
140.453
128.1
117.805
108.817
100.712
93.2506
86.2924
79.7474
73.5462
67.6284
61.9465
56.4692
51.1834
46.0976
41.2479
36.7014
32.5519
28.8991
25.8157
23.331
21.43
20.06
19.1471
18.6161
18.404
18.4648
18.7674
19.2935
20.0337
20.987
22.1596
23.5658
25.2296
27.1866
29.4869
32.1975
35.4054
39.2178
43.7599
49.1694
55.5874
63.1517
71.9922
82.2242
93.9358
107.18
121.995
138.442
156.672
177.03
200.252
227.84
262.876
311.993
391.01
544.785
941.457
2629.38
2026.4
700.261
386.822
267.715
209.562
176.035
154.155
138.396
126.102
115.89
106.999
99.0029
91.6567
84.816
78.3863
72.2933
66.4737
60.8789
55.4768
50.253
45.2143
40.3939
35.8562
31.6938
28.0087
24.8786
22.3388
20.3784
18.9469
17.9714
17.3776
17.1037
17.1047
17.3507
17.8237
18.5147
19.4225
20.5526
21.9184
23.5422
25.4575
27.711
30.3664
33.5059
37.2317
41.6641
46.9366
53.1873
60.5519
69.1586
79.1229
90.5359
103.456
117.926
134.013
151.875
171.863
194.72
221.953
256.642
305.409
384.041
537.233
931.934
2605.01
2029.89
700.855
385.996
266.208
207.744
174.088
152.176
136.44
124.203
114.069
105.273
97.3815
90.1463
83.4186
77.0991
71.1085
65.3811
59.8673
54.5341
49.3664
44.3691
39.5734
35.0412
30.864
27.1459
23.9696
21.3762
19.3592
17.8704
16.8377
16.1875
15.8589
15.8077
16.0044
16.4311
17.0788
17.9458
19.0371
20.365
21.9503
23.8243
26.0312
28.6309
31.7015
35.3403
39.6631
44.7992
50.884
58.0514
66.4281
76.1297
87.2508
99.8547
113.99
129.73
147.237
166.871
189.38
216.275
250.636
299.078
377.36
530.026
922.892
2582.04
2033.83
701.596
385.281
264.802
206.023
172.234
150.287
134.57
122.385
112.326
103.619
95.8276
88.6985
82.0788
75.8642
69.9711
64.3311
58.8937
53.6254
48.5099
43.551
38.7776
34.2498
30.0579
26.3081
23.0879
20.4443
18.3755
16.8353
15.7525
15.0541
14.6795
14.5848
14.7404
15.1283
15.7391
16.5704
17.6268
18.9194
20.4679
22.3015
24.462
27.0061
30.0078
33.5599
37.7738
42.7747
48.6954
55.668
63.8184
73.262
84.0968
96.3919
110.201
125.604
142.768
162.059
184.231
210.8
244.848
292.985
370.945
523.135
914.298
2560.32
2038.2
702.476
384.667
263.488
204.388
170.465
148.477
132.774
120.637
110.646
102.023
94.3249
87.2963
80.7794
74.6649
68.8647
63.3085
57.9445
52.7385
47.6735
42.7518
38.0006
33.4779
29.2733
25.4945
22.2343
19.5453
17.4306
15.8463
14.7218
13.9841
13.5729
13.4438
13.5668
13.9233
14.5033
15.3041
16.3293
17.5894
19.1026
20.8969
23.0117
25.5005
28.4337
31.9
36.0062
40.8739
46.6331
53.4142
61.3423
70.5331
81.0873
93.08
106.571
121.645
138.475
157.432
179.278
205.531
239.276
287.12
364.779
516.531
906.089
2539.71
2042.95
703.479
384.142
262.257
202.833
168.769
146.737
131.043
118.946
109.018
100.471
92.8607
85.9267
79.5074
73.4883
67.7774
62.3021
57.0097
51.8651
46.8503
41.9664
37.2388
32.7235
28.5092
24.7057
21.4101
18.6817
16.5279
14.9074
13.75
12.9826
12.544
12.3894
12.4878
12.8198
13.3749
14.1497
15.1471
16.3771
17.8569
19.6129
21.6826
24.1169
26.9827
30.3647
34.3654
39.1028
44.7039
51.2978
59.0087
67.9526
78.2325
89.9298
103.11
117.864
134.368
153
174.526
200.47
233.919
281.482
358.857
510.205
898.261
2520.13
2048.03
704.587
383.696
261.098
201.348
167.141
145.059
129.367
117.305
107.431
98.9544
91.4253
84.5802
78.2532
72.3253
66.7004
61.3042
56.0825
50.9996
46.0361
41.1919
36.4904
31.9859
27.7663
23.9427
20.6174
17.8557
15.6702
14.0217
12.8402
12.0521
11.5951
11.4231
11.5042
11.8179
12.3531
13.1058
14.0785
15.2806
16.7286
18.4476
20.4732
22.8541
25.654
28.9538
32.8522
37.4631
42.911
49.3232
56.8234
65.5274
75.5407
86.9502
99.8283
114.269
130.457
148.771
169.984
195.624
228.784
276.072
353.176
504.146
890.779
2501.49
2053.35
705.776
383.314
260.003
199.924
165.571
143.435
127.74
115.705
105.88
97.466
90.0117
83.2497
77.0101
71.1694
65.6281
60.3096
55.1588
50.1386
45.2285
40.4267
35.7549
31.2655
27.0453
23.2071
19.858
17.0695
14.8594
13.1908
11.9938
11.1934
10.726
10.5439
10.6138
10.9145
11.4339
12.1678
13.1185
14.2947
15.7123
17.3954
19.3783
21.7073
24.4434
27.664
31.4639
35.9535
41.2543
47.4919
54.7892
63.2622
73.0179
84.1488
96.7333
110.871
126.75
144.754
165.66
191.002
223.877
270.895
347.739
498.357
883.643
2483.7
2058.84
707.022
382.983
258.96
198.554
164.053
141.859
126.155
114.142
104.357
96.0005
88.6147
81.9303
75.7736
70.0165
64.5565
59.3152
54.2359
49.2802
44.4261
39.6703
35.0325
30.5629
26.3475
22.5003
19.1332
16.3244
14.0968
12.4156
11.2107
10.4055
9.9346
9.7483
9.8121
10.1038
10.6108
11.3286
12.2592
13.4111
14.7997
16.4483
18.3899
20.6689
23.3438
26.4888
30.195
34.5695
39.7307
45.8024
52.9064
61.1588
70.6679
81.5307
93.8319
107.676
123.255
140.958
161.563
186.612
219.205
265.959
342.551
492.835
876.83
2466.7
2064.43
708.296
382.684
257.958
197.228
162.579
140.324
124.607
112.609
102.86
94.5537
87.2307
80.6186
74.5404
68.8639
63.4835
58.319
53.3123
48.4233
43.6286
38.9227
34.3235
29.879
25.6738
21.8234
18.4443
15.6211
13.3824
11.6954
10.4894
9.68582
9.21689
9.03111
9.09259
9.37829
9.87531
10.5788
11.4908
12.6197
13.9804
15.5958
17.4976
19.7287
22.3454
25.4189
29.0372
33.3037
38.334
44.2498
51.1719
59.216
68.4912
79.0983
91.128
104.69
119.979
137.388
157.7
182.46
214.775
261.27
337.618
487.586
870.345
2450.4
2070.05
709.57
382.402
256.986
195.938
161.142
138.825
123.092
111.104
101.385
93.1227
85.857
79.3123
73.3086
67.7098
62.4076
57.32
52.3872
47.5675
42.8355
38.1839
33.6281
29.214
25.0249
21.1769
17.7914
14.9597
12.7157
11.0288
9.82724
9.03028
8.56758
8.38571
8.44748
8.72919
9.21768
9.90811
10.8025
11.9092
13.243
14.8262
16.6898
18.8753
21.437
24.4436
27.98
32.1464
37.0555
42.8266
49.5794
57.4289
66.4848
76.8505
88.622
101.914
116.925
134.05
154.076
178.553
210.594
256.833
332.945
482.608
864.165
2434.73
2075.68
710.818
382.118
256.029
194.674
159.736
137.357
121.603
109.622
99.9276
91.7052
84.4917
78.01
72.077
66.5532
61.3279
56.3174
51.46
46.7122
42.0466
37.4536
32.9463
28.5681
24.4006
20.5607
17.1744
14.3393
12.0951
10.4131
9.22058
8.43402
7.98054
7.80476
7.86839
8.1472
8.62796
9.30588
10.1831
11.2682
12.5758
14.1278
15.9547
18.0968
20.6067
23.551
27.0118
31.0863
35.8843
41.5228
48.12
55.7899
64.6422
74.7822
86.3107
99.3463
114.091
130.943
150.691
174.891
206.664
252.651
328.531
477.901
858.284
2419.59
2081.31
712.013
381.815
255.077
193.428
158.353
135.914
120.139
108.162
98.4873
90.2997
83.1338
76.7108
70.8449
65.3936
60.2441
55.3108
50.5303
45.857
41.2613
36.7312
32.2774
27.9406
23.8003
19.974
16.5919
13.7583
11.5182
9.84522
8.66507
7.89157
7.44919
7.28074
7.34694
7.62327
8.0965
8.76205
9.62233
10.6859
11.9677
13.4894
15.2809
17.3817
19.843
22.7295
26.121
30.1118
34.809
40.3272
46.7829
54.2889
62.9543
72.8856
84.1873
96.9818
111.474
128.064
147.544
171.475
202.984
248.724
324.378
473.459
852.672
2404.88
2086.94
713.133
381.473
254.117
192.19
156.988
134.491
118.696
106.719
97.0621
88.9051
81.7826
75.4142
69.6121
64.2309
59.1559
54.2999
49.5975
45.0012
40.4787
36.0158
31.6203
27.3301
23.2227
19.4153
16.0423
13.2144
10.9822
9.32128
8.156
7.39728
6.96702
6.80637
6.87529
7.14904
7.61456
8.26756
9.11075
10.153
11.4092
12.9012
14.6585
16.7198
19.1355
21.9686
25.2967
29.2117
33.8181
39.2283
45.5565
52.9144
61.41
71.1504
82.2425
94.8121
109.066
125.407
144.631
168.3
199.553
245.05
320.482
469.278
847.319
2390.5
2092.64
714.159
381.074
253.136
190.954
155.636
133.086
117.271
105.294
95.6506
87.5207
80.4376
74.1202
68.3785
63.0651
58.0633
53.2844
48.6614
44.144
39.6979