/*--------------------------------*- C++ -*----------------------------------*\
| =========                 |                                                 |
| \\      /  F ield         | OpenFOAM: The Open Source CFD Toolbox           |
|  \\    /   O peration     | Version:  1.7.x                                 |
|   \\  /    A nd           | Web:      www.OpenFOAM.com                      |
|    \\/     M anipulation  |                                                 |
\*---------------------------------------------------------------------------*/
FoamFile
{
    version     2.0;
    format      ascii;
    class       volScalarField;
    location    "50";
    object      k;
}
// * * * * * * * * * * * * * * * * * * * * * * * * * * * * * * * * * * * * * //

dimensions      [0 2 -2 0 0 0 0];

internalField   nonuniform List<scalar> 
52875
(
0.920426
0.202132
0.0395359
0.00815442
0.00220617
0.00107566
0.000915221
0.000935473
0.000969821
0.000992929
0.00100674
0.00101486
0.00101944
0.00102178
0.00102273
0.00102285
0.00102252
0.00102195
0.0010213
0.00102063
0.00101999
0.00101938
0.00101882
0.0010183
0.00101783
0.00101738
0.00101699
0.00101665
0.00101636
0.00101613
0.00101596
0.00101584
0.00101577
0.00101573
0.00101572
0.00101572
0.00101573
0.00101576
0.00101579
0.00101584
0.00101589
0.00101595
0.00101601
0.00101605
0.00101607
0.00101603
0.00101588
0.00101556
0.00101494
0.00101388
0.00101212
0.00100931
0.00100491
0.000998075
0.000987355
0.000970307
0.00094443
0.000915893
0.000934961
0.00122525
0.00271416
0.00962288
0.0432431
0.208591
0.923757
0.877584
0.355637
0.13155
0.0378017
0.0089618
0.00232627
0.00106327
0.000921334
0.000975942
0.00104244
0.00109567
0.00113674
0.00116785
0.00118993
0.00120326
0.001208
0.00120466
0.00119418
0.00117795
0.00115767
0.00113527
0.00111258
0.00109128
0.0010726
0.00105731
0.00104564
0.00103743
0.00103227
0.00102973
0.00102967
0.00103232
0.00103839
0.00104901
0.00106567
0.00108983
0.00112254
0.00116403
0.00121361
0.00126965
0.0013297
0.00139078
0.00144956
0.00150262
0.0015467
0.0015789
0.00159694
0.00159926
0.00158522
0.00155511
0.00151017
0.00145248
0.00138461
0.0013092
0.00122826
0.00114255
0.00105258
0.000968699
0.000958933
0.00133469
0.00338782
0.0123857
0.046402
0.14557
0.368546
0.872446
0.813528
0.504183
0.298381
0.153684
0.0759109
0.0513713
0.0543178
0.0673066
0.0831569
0.0990479
0.113556
0.125813
0.135265
0.141585
0.144635
0.144431
0.14112
0.134956
0.126287
0.115535
0.103183
0.0897639
0.0758471
0.0620223
0.0488857
0.0370246
0.0270135
0.0194459
0.0150316
0.014609
0.0186523
0.0268532
0.0385566
0.0531252
0.0699629
0.0884858
0.108118
0.128298
0.148478
0.168119
0.186739
0.203896
0.219181
0.232214
0.242644
0.250146
0.254425
0.255229
0.252361
0.245703
0.235234
0.221061
0.203441
0.182803
0.159774
0.135211
0.11028
0.0867303
0.0679469
0.0626255
0.0906612
0.175397
0.321904
0.519312
0.80251
0.884519
0.787673
0.729064
0.708456
0.724793
0.764969
0.815173
0.865902
0.911686
0.949591
0.978177
0.996912
1.00584
1.00538
0.996176
0.978999
0.954668
0.924008
0.887824
0.846914
0.802101
0.754288
0.704537
0.654174
0.604899
0.55891
0.518984
0.488398
0.470497
0.467812
0.481048
0.508755
0.547988
0.595349
0.647708
0.702492
0.757735
0.812022
0.864405
0.914308
0.961407
1.00552
1.04653
1.0843
1.11856
1.14892
1.1748
1.19544
1.20993
1.21726
1.21639
1.20636
1.18636
1.15591
1.11496
1.06403
1.00443
0.938506
0.870213
0.806085
0.756397
0.734328
0.748932
0.794479
0.861945
1.03341
1.15374
1.27189
1.38408
1.488
1.58033
1.65866
1.72159
1.76858
1.79972
1.81562
1.81728
1.80599
1.78326
1.75067
1.70979
1.66215
1.60912
1.55193
1.49165
1.4293
1.36587
1.3025
1.24066
1.18225
1.12981
1.08646
1.05571
1.04079
1.04384
1.06509
1.10269
1.15331
1.213
1.27799
1.34518
1.41233
1.47804
1.54167
1.60312
1.66263
1.72058
1.77727
1.83289
1.88743
1.94057
1.99171
2.03993
2.08396
2.12224
2.15291
2.1739
2.18304
2.17825
2.15767
2.1199
2.06409
1.99005
1.89829
1.78999
1.66689
1.53096
1.38369
1.22155
1.03291
1.10242
1.31454
1.51313
1.67861
1.81582
1.92771
2.01611
2.0824
2.12783
2.15371
2.16152
2.15292
2.12979
2.09415
2.04809
1.99371
1.93303
1.86794
1.80014
1.73116
1.66235
1.59499
1.53041
1.47016
1.41617
1.37085
1.33704
1.31769
1.31526
1.331
1.36438
1.41312
1.47372
1.54231
1.61529
1.68978
1.76385
1.83647
1.90739
1.97686
2.04537
2.11348
2.1816
2.2499
2.31829
2.38637
2.45343
2.51842
2.57996
2.6363
2.68535
2.72465
2.75153
2.76322
2.75697
2.73025
2.68086
2.607
2.5072
2.38008
2.22386
2.03552
1.80838
1.52626
1.17059
1.08526
1.30449
1.51955
1.69465
1.83685
1.95094
2.03981
2.10544
2.14942
2.17323
2.17844
2.16678
2.14018
2.10071
2.05059
1.99206
1.92739
1.85872
1.78812
1.71745
1.64848
1.58288
1.52233
1.46872
1.4242
1.39132
1.37281
1.37124
1.38834
1.42436
1.47775
1.54536
1.62317
1.70698
1.7931
1.87873
1.96214
2.04262
2.12029
2.19581
2.27004
2.34381
2.41777
2.49225
2.56725
2.64244
2.71714
2.79029
2.86045
2.92577
2.98391
3.03216
3.06743
3.08647
3.08599
3.0629
3.01442
2.93815
2.83199
2.69374
2.52047
2.30697
2.04232
1.70056
1.25234
1.02591
1.22035
1.42256
1.58747
1.72103
1.82779
1.91055
1.97121
2.01128
2.03214
2.03527
2.0223
1.99503
1.95547
1.90574
1.84807
1.7847
1.71786
1.64973
1.58239
1.51786
1.45814
1.40529
1.3616
1.32958
1.31204
1.31174
1.33087
1.37036
1.42933
1.50504
1.59338
1.68962
1.78917
1.88819
1.98398
2.07511
2.16136
2.24342
2.32251
2.40002
2.47721
2.555
2.63391
2.71405
2.79506
2.87619
2.95627
3.03367
3.10626
3.17141
3.22603
3.26667
3.28968
3.29143
3.26854
3.21803
3.13739
3.02439
2.87673
2.69117
2.46179
2.1758
1.80242
1.30164
0.958086
1.12176
1.30113
1.44829
1.56742
1.66222
1.73507
1.78765
1.82131
1.83736
1.83719
1.82232
1.79447
1.7555
1.70743
1.65236
1.59244
1.52984
1.46672
1.40523
1.34755
1.29592
1.25275
1.22069
1.2027
1.20183
1.22077
1.26122
1.32307
1.40418
1.50061
1.60733
1.71902
1.83082
1.93895
2.04101
2.13613
2.22474
2.30823
2.38845
2.4673
2.54637
2.6268
2.70915
2.79347
2.87928
2.96564
3.05116
3.13398
3.21171
3.28151
3.34006
3.38372
3.40872
3.41135
3.38817
3.33619
3.25288
3.13602
2.98323
2.79109
2.55327
2.25602
1.86581
1.33585
0.898641
1.03491
1.18992
1.31762
1.4207
1.50204
1.56357
1.60675
1.63282
1.64302
1.63867
1.62124
1.59236
1.55377
1.50737
1.45511
1.39901
1.34113
1.28355
1.22843
1.178
1.13469
1.10116
1.08037
1.07554
1.08975
1.12534
1.1831
1.26175
1.35791
1.46671
1.58257
1.70005
1.81449
1.92258
2.02265
2.1146
2.19965
2.27985
2.35755
2.43494
2.51375
2.59503
2.67916
2.7659
2.85444
2.94346
3.03123
3.11558
3.19395
3.26339
3.32065
3.3623
3.38489
3.38513
3.36001
3.30692
3.22361
3.10799
2.95768
2.76914
2.53586
2.244
1.86061
1.34232
0.853357
0.966484
1.09982
1.20988
1.29828
1.36718
1.41814
1.45246
1.47129
1.47585
1.46742
1.44741
1.41736
1.37893
1.33388
1.28402
1.23125
1.17752
1.12485
1.07538
1.03143
0.995558
0.970695
0.960093
0.96714
0.994829
1.04494
1.11729
1.20941
1.31696
1.43444
1.55606
1.67648
1.7915
1.89849
1.99655
2.08635
2.16974
2.24919
2.32725
2.40605
2.48708
2.57104
2.65793
2.74709
2.83735
2.92713
3.01449
3.09719
3.17271
3.23825
3.29087
3.32753
3.34525
3.3412
3.31283
3.25785
3.17425
3.05999
2.91267
2.72862
2.50118
2.21659
1.84286
1.34334
0.81992
0.91536
1.0309
1.12639
1.20265
1.26126
1.30351
1.33054
1.34345
1.34339
1.33163
1.3095
1.27847
1.24011
1.19605
1.14802
1.09782
1.04731
0.998478
0.953477
0.91471
0.884929
0.867299
0.865328
0.882515
0.92162
0.983755
1.06774
1.17016
1.28592
1.40916
1.53407
1.65558
1.77
1.87535
1.97139
2.05938
2.14161
2.22077
2.29941
2.37954
2.46238
2.54834
2.6371
2.72775
2.81892
2.90888
2.99563
3.07692
3.15028
3.21307
3.26255
3.29594
3.31056
3.30389
3.27363
3.21774
3.13432
3.02141
2.87656
2.69604
2.4732
2.19449
1.82923
1.34517
0.796082
0.877807
0.979196
1.06303
1.12962
1.18013
1.21561
1.23706
1.24551
1.24204
1.22785
1.20422
1.17255
1.1343
1.09105
1.04444
0.996182
0.948116
0.902212
0.860658
0.825959
0.801044
0.789306
0.794449
0.819978
0.868306
0.939823
1.03247
1.14206
1.26303
1.38938
1.51538
1.63633
1.74901
1.85195
1.94543
2.03113
2.11159
2.18961
2.26773
2.34782
2.43091
2.51724
2.60632
2.69709
2.78809
2.87756
2.96347
3.04361
3.11557
3.17683
3.22477
3.25679
3.27036
3.26313
3.23294
3.17784
3.09599
2.98543
2.84368
2.66698
2.44868
2.17547
1.81768
1.34729
0.779483
0.850706
0.940783
1.01528
1.07422
1.11841
1.14871
1.16599
1.17119
1.1653
1.14947
1.12489
1.0929
1.05489
1.01237
0.966927
0.920228
0.874072
0.830423
0.791502
0.759897
0.738671
0.731383
0.74184
0.773453
0.82823
0.90591
1.00375
1.11704
1.24001
1.36664
1.4914
1.60991
1.71933
1.81861
1.90837
1.99055
2.06786
2.14317
2.21896
2.29701
2.37824
2.4627
2.5498
2.63839
2.72693
2.81366
2.89657
2.97352
3.04224
3.10036
3.14547
3.17518
3.1872
3.17938
3.14974
3.09646
3.01774
2.91164
2.77564
2.60593
2.39595
2.13283
1.78869
1.34152
0.767765
0.831432
0.913197
0.980819
1.03416
1.07381
1.10042
1.11476
1.11768
1.11011
1.09313
1.06789
1.03565
0.997791
0.955761
0.911103
0.865461
0.820603
0.778488
0.741356
0.711859
0.693178
0.689022
0.703322
0.739474
0.799261
0.88202
0.984604
1.10203
1.22838
1.35763
1.48432
1.6042
1.71458
1.81458
1.90496
1.98777
2.06574
2.14168
2.21796
2.29616
2.37704
2.46054
2.54599
2.63227
2.71796
2.80141
2.88084
2.95433
3.01982
3.07516
3.1181
3.14636
3.15772
3.15004
3.12129
3.06956
2.99294
2.88939
2.75628
2.58975
2.38322
2.12392
1.78444
1.34477
0.759613
0.819928
0.896264
0.95923
1.00873
1.0452
1.06918
1.08135
1.0825
1.07353
1.05546
1.02944
0.996712
0.958618
0.916597
0.872174
0.826973
0.78275
0.74146
0.705368
0.677195
0.660255
0.658453
0.67593
0.716194
0.780947
0.869263
0.977666
1.10088
1.23278
1.36716
1.49846
1.62231
1.73602
1.83867
1.93108
2.01533
2.09417
2.17039
2.24633
2.32357
2.40283
2.48414
2.56693
2.65023
2.73281
2.81325
2.88995
2.96119
3.02506
3.07949
3.12228
3.15112
3.16371
3.15775
3.13105
3.08149
3.007
2.90533
2.77372
2.60819
2.40202
2.1423
1.80128
1.35648
0.75496
0.814922
0.888136
0.948103
0.994973
1.02914
1.05109
1.06146
1.06102
1.05066
1.03141
1.00439
0.970864
0.93217
0.889743
0.845103
0.799861
0.755763
0.714765
0.679159
0.651746
0.635997
0.636052
0.656316
0.700465
0.770131
0.864086
0.978446
1.10756
1.24498
1.38426
1.51964
1.64663
1.76242
1.8661
1.95851
2.0418
2.11882
2.19246
2.2652
2.33876
2.41404
2.49125
2.57001
2.64954
2.72882
2.80656
2.88133
2.95148
3.01517
3.07033
3.11471
3.1459
3.16141
3.15876
3.13553
3.08939
3.01807
2.91915
2.78973
2.62571
2.42027
2.16033
1.81766
1.36795
0.753498
0.814538
0.885874
0.943692
0.988478
1.02067
1.04077
1.04942
1.04737
1.03555
1.01498
0.986833
0.952362
0.912922
0.869946
0.824942
0.779502
0.735351
0.69444
0.659095
0.632201
0.617399
0.619088
0.641948
0.689788
0.764078
0.863156
0.982625
1.1164
1.25773
1.39996
1.53722
1.66497
1.78042
1.8827
1.97274
2.0528
2.12587
2.19499
2.26278
2.33111
2.40107
2.47302
2.54675
2.62164
2.69677
2.77103
2.84305
2.91131
2.97402
3.02916
3.07446
3.10747
3.12561
3.12628
3.10688
3.06491
2.9979
2.90326
2.77796
2.61777
2.4158
2.15899
1.81935
1.37314
0.75528
0.816778
0.886834
0.942958
0.985941
1.01632
1.03464
1.04158
1.03793
1.02463
1.00276
0.973485
0.938098
0.897958
0.854493
0.809194
0.763629
0.719492
0.678712
0.643624
0.617196
0.603243
0.606429
0.631711
0.682952
0.761319
0.864586
0.987785
1.12442
1.26752
1.41037
1.54711
1.67329
1.78622
1.88515
1.9711
2.04645
2.11425
2.17765
2.23938
2.30146
2.36511
2.43083
2.49858
2.56787
2.63793
2.70775
2.7761
2.84153
2.90235
2.95658
3.00199
3.03611
3.05631
3.05988
3.04413
3.00641
2.94414
2.85461
2.7347
2.58017
2.38418
2.13396
1.80252
1.37016
0.760093
0.821335
0.890317
0.945026
0.986438
1.01519
1.0319
1.03728
1.03216
1.01754
0.994515
0.964285
0.928151
0.887479
0.843689
0.798244
0.752676
0.708641
0.668047
0.633248
0.607296
0.594178
0.598793
0.626285
0.680489
0.762184
0.868537
0.994037
1.13187
1.27496
1.41665
1.5512
1.67433
1.78356
1.87828
1.95961
2.02998
2.09247
2.15027
2.20614
2.26219
2.31974
2.37942
2.44129
2.50501
2.56993
2.63514
2.69953
2.76176
2.82019
2.87292
2.91775
2.95221
2.97366
2.97932
2.96642
2.93225
2.87412
2.78929
2.67463
2.52594
2.33664
2.09452
1.77433
1.36167
0.767909
0.828342
0.896378
0.949944
0.9901
1.01756
1.03299
1.03715
1.03092
1.01533
0.991481
0.960617
0.924043
0.883122
0.839253
0.793866
0.748447
0.704611
0.664245
0.629728
0.604209
0.591847
0.597758
0.627209
0.683868
0.767994
0.876111
1.00223
1.13935
1.28042
1.41896
1.54955
1.66818
1.7726
1.86234
1.93858
2.0037
2.06076
2.11288
2.16283
2.21275
2.26406
2.31752
2.37332
2.43125
2.49079
2.55117
2.61138
2.67015
2.72596
2.77693
2.82092
2.85547
2.87788
2.88537
2.8751
2.84429
2.79022
2.71013
2.60092
2.45854
2.27672
2.04401
1.73729
1.34882
0.778295
0.837428
0.904619
0.957312
0.996561
1.02313
1.03772
1.04114
1.03429
1.01821
0.994035
0.96301
0.926441
0.88568
0.842096
0.797078
0.752058
0.708606
0.668588
0.634408
0.60931
0.597612
0.604601
0.635586
0.693966
0.77944
0.887941
1.01313
1.14791
1.2854
1.41941
1.54485
1.65807
1.75705
1.84148
1.91254
1.97256
2.02445
2.07123
2.1156
2.15968
2.20495
2.25225
2.30192
2.35386
2.40771
2.46281
2.51829
2.57301
2.62552
2.67408
2.71659
2.75062
2.77352
2.78246
2.77457
2.74702
2.69704
2.62185
2.5184
2.38278
2.20908
1.98672
1.69501
1.33317
0.790526
0.847666
0.914022
0.966076
1.00477
1.03087
1.04512
1.04831
1.04137
1.02535
1.00138
0.970724
0.934667
0.894545
0.851695
0.807457
0.76321
0.720476
0.681099
0.647504
0.623011
0.612066
0.62006
0.652241
0.711673
0.797517
0.905236
1.02827
1.15958
1.29249
1.42114
1.54083
1.64823
1.74159
1.82069
1.8867
1.94177
1.98865
2.03016
2.06887
2.10688
2.14569
2.18627
2.22912
2.27433
2.32172
2.37083
2.42093
2.47104
2.51983
2.56564
2.60644
2.63983
2.66315
2.67353
2.66805
2.64382
2.59802
2.52787
2.43036
2.30179
2.13661
1.92516
1.64915
1.31553
0.803827
0.858153
0.923601
0.975202
1.01366
1.03968
1.054
1.05742
1.05086
1.03537
1.01209
0.982256
0.94717
0.908139
0.866473
0.823472
0.780474
0.73897
0.700798
0.668413
0.645214
0.635736
0.645376
0.679164
0.73969
0.825571
0.931917
1.0521
1.17922
1.30691
1.4297
1.54326
1.64463
1.73229
1.80612
1.86721
1.91755
1.95962
1.99602
2.02914
2.06102
2.09319
2.12676
2.16239
2.20042
2.24087
2.2835
2.32778
2.37288
2.41762
2.4604
2.49926
2.53181
2.55536
2.56698
2.56368
2.54249
2.50056
2.4351
2.34319
2.2213
2.06432
1.86355
1.60328
1.29734
0.817654
0.868181
0.932556
0.983812
1.02226
1.04851
1.06324
1.06724
1.06142
1.04682
1.02458
0.995945
0.962201
0.924653
0.884596
0.84332
0.802156
0.762611
0.726565
0.696558
0.676085
0.669718
0.682665
0.719417
0.781772
0.867696
0.972057
1.08836
1.21005
1.3312
1.44684
1.55313
1.64753
1.72879
1.7969
1.85288
1.89851
1.93596
1.96755
1.99543
2.02151
2.04733
2.07408
2.1026
2.13345
2.16689
2.20292
2.24121
2.28113
2.32163
2.36124
2.39801
2.42959
2.45325
2.46598
2.46471
2.44639
2.4081
2.34706
2.26042
2.14485
1.99568
1.80513
1.55991
1.27985
0.83149
0.877019
0.940045
0.990962
1.02953
1.05619
1.07155
1.07636
1.07151
1.05805
1.03711
1.00993
0.977819
0.942086
0.904045
0.865012
0.826371
0.789712
0.757038
0.731026
0.715257
0.714156
0.732346
0.773225
0.837382
0.922065
1.02215
1.13165
1.24471
1.35616
1.46176
1.55833
1.64387
1.71748
1.77926
1.83014
1.8716
1.90544
1.93354
1.95775
1.97971
2.00086
2.02237
2.0452
2.07007
2.09745
2.12756
2.16034
2.19536
2.23175
2.2682
2.30287
2.33343
2.35714
2.37095
2.3717
2.35623
2.32158
2.26491
2.18342
2.07398
1.9323
1.75154
1.52053
1.26416
0.844733
0.883909
0.945173
0.995623
1.03431
1.06144
1.0775
1.08322
1.07946
1.06724
1.04771
1.02213
0.991811
0.958095
0.922338
0.885918
0.850315
0.817245
0.788853
0.767913
0.757898
0.762706
0.78583
0.829135
0.891919
0.971009
1.06177
1.15919
1.25856
1.35581
1.44769
1.53184
1.60683
1.67209
1.72773
1.77445
1.81331
1.8456
1.87268
1.89593
1.91664
1.93603
1.95516
1.97499
1.99634
2.01984
2.04593
2.07475
2.10612
2.13941
2.17348
2.20663
2.23663
2.26076
2.27596
2.279
2.26669
2.23596
2.18396
2.10794
2.00488
1.87089
1.69996
1.48306
1.24999
0.85662
0.888343
0.947332
0.997054
1.03571
1.0632
1.07989
1.08645
1.08371
1.07268
1.05451
1.03045
1.00184
0.970055
0.936474
0.902534
0.869788
0.840025
0.815425
0.798657
0.792786
0.80084
0.825011
0.865824
0.921815
0.989965
1.06654
1.14778
1.23028
1.31118
1.38822
1.45978
1.52486
1.583
1.63421
1.67879
1.71733
1.75054
1.77925
1.80435
1.82675
1.8474
1.86719
1.88703
1.90774
1.93004
1.9545
1.98147
2.01096
2.04256
2.07533
2.10774
2.13769
2.16255
2.1793
2.18472
2.17558
2.14881
2.10156
2.03112
1.93463
1.80855
1.6477
1.44522
1.23637
0.866581
0.890264
0.946443
0.995055
1.03339
1.06098
1.07809
1.08527
1.08333
1.07326
1.05619
1.03337
1.00614
0.975855
0.943906
0.911726
0.880851
0.853026
0.830299
0.815041
0.809774
0.816711
0.83713
0.870892
0.916445
0.971308
1.0327
1.09797
1.16479
1.23122
1.29572
1.35714
1.41469
1.46786
1.51645
1.56042
1.5999
1.63516
1.66662
1.69475
1.72018
1.74357
1.7657
1.78733
1.80926
1.83225
1.85692
1.88373
1.91282
1.94396
1.97638
2.00872
2.039
2.06472
2.08295
2.09052
2.08426
2.06113
2.01833
1.95323
1.86314
1.74491
1.59421
1.4063
1.22243
0.874428
0.889945
0.942838
0.989917
1.02755
1.05492
1.07211
1.0796
1.07815
1.06871
1.05239
1.03043
1.0041
0.974756
0.943726
0.912383
0.882171
0.85469
0.831768
0.815447
0.807803
0.81056
0.824613
0.849729
0.884634
0.927431
0.976065
1.02863
1.08347
1.13919
1.19464
1.2489
1.30123
1.35107
1.39801
1.44179
1.48224
1.51935
1.55324
1.58414
1.61244
1.63864
1.66334
1.68722
1.71101
1.73543
1.76113
1.7886
1.81806
1.84938
1.8819
1.91442
1.9451
1.97154
1.99094
2.00023
1.99633
1.97626
1.93732
1.877
1.79281
1.68197
1.54105
1.36751
1.20805
0.880366
0.887835
0.937071
0.982219
1.01878
1.04557
1.0625
1.06998
1.06869
1.05956
1.04365
1.02216
0.996334
0.967443
0.936756
0.905544
0.875122
0.846921
0.822545
0.803771
0.792402
0.789956
0.797286
0.814334
0.84019
0.873414
0.912414
0.955699
1.00197
1.05011
1.09915
1.14828
1.19676
1.24401
1.28949
1.33281
1.37366
1.41184
1.44731
1.48015
1.51059
1.53899
1.56584
1.59173
1.61732
1.64327
1.67021
1.69863
1.72878
1.76057
1.79345
1.82628
1.85736
1.88442
1.90476
1.91544
1.91347
1.89599
1.8604
1.80432
1.7255
1.62157
1.48994
1.33011
1.19347
0.884739
0.884418
0.929744
0.972636
1.00779
1.0337
1.05008
1.05725
1.05585
1.04676
1.031
1.00972
0.984111
0.955379
0.924708
0.893264
0.862233
0.832883
0.806635
0.785071
0.769839
0.762408
0.763729
0.773995
0.792627
0.818517
0.850352
0.886858
0.926904
0.969504
1.01379
1.05898
1.10438
1.14935
1.19335
1.2359
1.2766
1.31519
1.35151
1.38554
1.41741
1.44738
1.47586
1.50335
1.53042
1.5577
1.58576
1.61508
1.64593
1.67822
1.71146
1.7446
1.77602
1.80356
1.82465
1.83647
1.83613
1.82089
1.78828
1.73605
1.66218
1.5647
1.44184
1.29494
1.17904
0.887914
0.880144
0.921407
0.961801
0.995307
1.02007
1.03567
1.04232
1.04062
1.03138
1.0156
0.994377
0.968846
0.940144
0.909375
0.877606
0.845903
0.815398
0.787357
0.763218
0.744536
0.732781
0.729047
0.733769
0.746657
0.766849
0.793208
0.824576
0.859899
0.898251
0.938805
0.980818
1.02361
1.06654
1.10905
1.15064
1.19088
1.22945
1.26613
1.30084
1.33364
1.3647
1.39437
1.42305
1.45129
1.47962
1.50859
1.53864
1.57003
1.60271
1.63619
1.66951
1.70113
1.729
1.75065
1.76337
1.76442
1.75116
1.72122
1.67252
1.60325
1.5118
1.39719
1.26234
1.16503
0.890178
0.875371
0.91251
0.950242
0.981911
1.00536
1.02001
1.02599
1.02385
1.01437
0.998482
0.977252
0.951759
0.923076
0.892229
0.860195
0.827937
0.796466
0.76692
0.740623
0.719054
0.703704
0.695794
0.695987
0.704238
0.719889
0.741932
0.769269
0.80088
0.83586
0.873406
0.912793
0.953354
0.994471
1.03558
1.07617
1.1158
1.15412
1.19088
1.22596
1.25934
1.29116
1.32168
1.35126
1.38036
1.40949
1.43913
1.4697
1.50145
1.53431
1.56787
1.60119
1.63283
1.66084
1.68285
1.69629
1.6985
1.68698
1.65945
1.61399
1.54898
1.46318
1.35627
1.23256
1.15169
0.891778
0.870376
0.903399
0.938368
0.96808
0.990092
1.00369
1.00892
1.00627
0.996484
0.98047
0.95923
0.933798
0.905185
0.874345
0.842174
0.80954
0.777352
0.746637
0.718617
0.694707
0.676406
0.665049
0.661492
0.665914
0.677838
0.696355
0.720409
0.748988
0.781189
0.816218
0.853362
0.89197
0.93144
0.971215
1.01079
1.04973
1.08767
1.12432
1.15954
1.19328
1.22561
1.25675
1.28699
1.31675
1.34647
1.37661
1.40754
1.43949
1.47241
1.50591
1.53911
1.57065
1.59867
1.62093
1.63494
1.63817
1.6282
1.6029
1.56044
1.4994
1.41887
1.31912
1.20562
1.13918
0.892901
0.865357
0.894327
0.926492
0.954178
0.974686
0.987166
0.991599
0.988417
0.978323
0.962188
0.940971
0.915654
0.887189
0.856461
0.824292
0.791465
0.758796
0.727217
0.697857
0.672068
0.651347
0.637115
0.630401
0.631583
0.640349
0.655885
0.677164
0.703168
0.732987
0.765825
0.80098
0.837813
0.875741
0.914224
0.952772
0.990948
1.02838
1.06479
1.09999
1.1339
1.16656
1.19813
1.22887
1.25912
1.28929
1.31978
1.35095
1.38301
1.41591
1.44927
1.48229
1.51367
1.54165
1.56409
1.57861
1.58277
1.57428
1.55107
1.51145
1.45417
1.37858
1.28553
1.18141
1.12761
0.893714
0.860461
0.885479
0.914839
0.940471
0.959445
0.970786
0.974408
0.970695
0.960312
0.944091
0.922947
0.89781
0.869573
0.839057
0.807013
0.774147
0.741193
0.708996
0.678602
0.651301
0.628577
0.611917
0.602494
0.600868
0.606886
0.61982
0.638669
0.662404
0.690101
0.720958
0.754277
0.789436
0.82587
0.863062
0.900538
0.937875
0.974707
1.01074
1.04578
1.07971
1.11255
1.1444
1.17549
1.2061
1.23661
1.26737
1.2987
1.3308
1.36363
1.39683
1.42965
1.46085
1.48878
1.51139
1.5264
1.53149
1.52442
1.50324
1.46636
1.41268
1.34181
1.25505
1.15957
1.11692
0.89434
0.855787
0.876977
0.903564
0.927144
0.94458
0.954787
0.95761
0.953389
0.942751
0.926488
0.905469
0.880574
0.852637
0.822415
0.790591
0.757802
0.724707
0.692076
0.660879
0.632345
0.60794
0.589196
0.577407
0.5733
0.576867
0.587469
0.604126
0.625797
0.651538
0.680539
0.712107
0.745635
0.780582
0.816454
0.852802
0.889218
0.925346
0.960895
0.995649
1.02948
1.06237
1.09439
1.12572
1.1566
1.18735
1.21831
1.24976
1.28186
1.3146
1.34763
1.38024
1.41128
1.43918
1.46197
1.47749
1.4835
1.47785
1.45867
1.42448
1.37429
1.30795
1.22717
1.13973
1.10706
0.894886
0.851396
0.868893
0.892759
0.914311
0.930228
0.939319
0.941369
0.936674
0.925822
0.909563
0.88872
0.86412
0.836536
0.806666
0.775127
0.742492
0.709355
0.676417
0.644582
0.615023
0.589181
0.568619
0.554734
0.548397
0.549739
0.558207
0.57284
0.592584
0.616474
0.643692
0.673549
0.705458
0.738903
0.773418
0.80858
0.844003
0.879344
0.914315
0.948692
0.982331
1.01518
1.04728
1.07876
1.10984
1.14078
1.17189
1.20341
1.2355
1.26813
1.30099
1.33341
1.3643
1.39218
1.41518
1.43122
1.43815
1.43392
1.41673
1.38517
1.3384
1.27645
1.20137
1.12148
1.09792
0.895424
0.847313
0.861259
0.882469
0.90203
0.916458
0.924464
0.925776
0.920644
0.909616
0.893402
0.872776
0.848508
0.821316
0.791833
0.760617
0.728181
0.69506
0.661898
0.62954
0.599108
0.572015
0.549845
0.534077
0.525712
0.525009
0.531494
0.544229
0.562144
0.584256
0.609737
0.637908
0.668201
0.700129
0.733259
0.767196
0.801577
0.836076
0.870407
0.904342
0.93772
0.970463
1.00258
1.03416
1.06538
1.09647
1.12768
1.15925
1.1913
1.22382
1.2565
1.28873
1.31949
1.34736
1.37057
1.38714
1.39501
1.39218
1.37695
1.34799
1.30455
1.24686
1.17728
1.10454
1.08941
0.896014
0.843545
0.854075
0.8727
0.890317
0.903293
0.910251
0.910859
0.905326
0.894159
0.878022
0.85764
0.833729
0.806946
0.777866
0.746988
0.714772
0.6817
0.648365
0.615561
0.584367
0.556167
0.532557
0.515082
0.504857
0.502258
0.506886
0.517823
0.533988
0.55438
0.578164
0.604672
0.63336
0.663772
0.695508
0.728205
0.761523
0.795152
0.828811
0.862267
0.895344
0.927938
0.960026
0.991664
1.02298
1.05418
1.08547
1.11705
1.14905
1.18144
1.21394
1.24597
1.27659
1.30445
1.32788
1.34498
1.35376
1.35232
1.33901
1.31259
1.27241
1.21887
1.15458
1.08865
1.08146
0.896691
0.840081
0.847322
0.863439
0.879163
0.890729
0.896675
0.896615
0.890712
0.879433
0.863395
0.843274
0.819729
0.793359
0.764682
0.734142
0.702147
0.669137
0.635659
0.602463
0.57059
0.541397
0.516484
0.497451
0.48551
0.481144
0.484023
0.493251
0.507736
0.52646
0.548589
0.573466
0.600575
0.629491
0.659849
0.691315
0.723574
0.756331
0.78931
0.822272
0.855027
0.887448
0.91948
0.951143
0.982534
1.0138
1.04514
1.07671
1.10863
1.14087
1.17317
1.205
1.23547
1.26331
1.28694
1.30454
1.31421
1.31412
1.30269
1.27875
1.24175
1.19222
1.13306
1.07366
1.07401
0.897482
0.836905
0.840976
0.85466
0.868545
0.878745
0.883716
0.883017
0.876771
0.865398
0.849471
0.829615
0.806433
0.780469
0.752183
0.721969
0.69019
0.657243
0.623638
0.59009
0.557601
0.527507
0.501407
0.480943
0.467413
0.461392
0.46262
0.47022
0.483091
0.500205
0.520727
0.54402
0.569591
0.597052
0.626068
0.656336
0.687564
0.719468
0.751778
0.78425
0.816678
0.848914
0.880871
0.912539
0.943974
0.975293
1.00665
1.03819
1.07001
1.10207
1.13415
1.16575
1.19605
1.22384
1.24764
1.26571
1.27623
1.27744
1.26783
1.2463
1.21238
1.16677
1.11256
1.05943
1.06701
0.898401
0.833996
0.835009
0.846335
0.858437
0.867313
0.871343
0.870034
0.863462
0.852006
0.836192
0.816595
0.793765
0.768189
0.740276
0.71037
0.678794
0.645908
0.612187
0.578315
0.545264
0.514346
0.487157
0.465374
0.450364
0.442792
0.442459
0.448508
0.459834
0.4754
0.494378
0.516146
0.540242
0.566308
0.594041
0.623165
0.653408
0.684497
0.716167
0.748165
0.780275
0.812323
0.844198
0.875854
0.907313
0.938659
0.970009
1.00149
1.03317
1.06504
1.09687
1.12821
1.1583
1.18601
1.20994
1.22843
1.23974
1.24219
1.23433
1.21512
1.1842
1.14237
1.09296
1.04587
1.06042
0.899455
0.831338
0.829392
0.838434
0.848808
0.856404
0.859526
0.857628
0.850743
0.839206
0.823499
0.804148
0.78165
0.756441
0.728878
0.699262
0.667875
0.635044
0.601216
0.567045
0.533478
0.501802
0.473611
0.450605
0.434217
0.425188
0.423379
0.427956
0.437811
0.451904
0.469413
0.489735
0.512436
0.537188
0.563717
0.59177
0.621091
0.651419
0.682489
0.714044
0.745851
0.777719
0.809507
0.841141
0.872608
0.903958
0.935278
0.966668
0.998192
1.02982
1.06137
1.09241
1.12224
1.14982
1.17382
1.19267
1.2047
1.20832
1.20212
1.18515
1.1571
1.11894
1.07417
1.03291
1.0542
0.900642
0.828909
0.8241
0.830931
0.839632
0.845988
0.848231
0.845762
0.83857
0.826949
0.811338
0.792214
0.770026
0.745158
0.717922
0.688576
0.657365
0.624586
0.59066
0.556215
0.522173
0.4898
0.460684
0.436544
0.418868
0.408471
0.40527
0.408456
0.416923
0.429629
0.445761
0.464734
0.486141
0.509679
0.535099
0.562168
0.590645
0.620277
0.650799
0.681947
0.713476
0.745174
0.776877
0.808479
0.839939
0.871271
0.902535
0.933807
0.965136
0.996495
1.02771
1.05841
1.08793
1.11531
1.13931
1.15844
1.17112
1.17581
1.17118
1.15633
1.13105
1.09642
1.05613
1.02049
1.04831
0.901955
0.826692
0.819107
0.823796
0.830877
0.836032
0.837423
0.834396
0.8269
0.815188
0.799656
0.780738
0.758835
0.734284
0.707352
0.678258
0.647214
0.614487
0.580474
0.54578
0.511303
0.47829
0.448319
0.423126
0.404248
0.392567
0.388059
0.389943
0.397114
0.408533
0.423394
0.441132
0.461359
0.483795
0.508214
0.534398
0.562118
0.591125
0.621155
0.651938
0.683215
0.714756
0.746375
0.777938
0.809375
0.840669
0.871852
0.902976
0.934077
0.965126
0.995971
1.02627
1.05542
1.08254
1.10647
1.1258
1.13902
1.14468
1.1415
1.12865
1.10602
1.07477
1.0388
1.00858
1.04271
0.903381
0.824665
0.814387
0.817
0.822512
0.826503
0.827064
0.823491
0.81569
0.803876
0.788406
0.76967
0.748027
0.723769
0.697122
0.668267
0.637384
0.604714
0.570629
0.535713
0.500842
0.467243
0.436483
0.410313
0.390313
0.377431
0.371702
0.372374
0.37835
0.388592
0.402301
0.418925
0.438096
0.459552
0.483082
0.508482
0.535532
0.563987
0.593582
0.624039
0.65509
0.686488
0.718023
0.749541
0.78094
0.812176
0.843255
0.874205
0.905049
0.935757
0.96619
0.996041
1.02477
1.05156
1.07533
1.09477
1.10844
1.11495
1.11311
1.10214
1.082
1.054
1.02218
0.997169
1.03738
0.904901
0.822806
0.809911
0.810511
0.814501
0.817364
0.817116
0.813005
0.804896
0.792968
0.777541
0.758965
0.737558
0.713572
0.687194
0.658568
0.627847
0.595243
0.561106
0.525997
0.490773
0.456641
0.425157
0.398081
0.377034
0.363031
0.356166
0.355721
0.360607
0.369786
0.382464
0.398101
0.41634
0.436934
0.459684
0.484398
0.51086
0.53883
0.568039
0.598208
0.629054
0.660317
0.69177
0.723234
0.754582
0.785747
0.816704
0.847462
0.878029
0.908372
0.938367
0.967737
0.995996
1.0224
1.04594
1.0654
1.07941
1.08667
1.08603
1.0768
1.05902
1.0341
1.00625
0.986238
1.0323
0.906496
0.821088
0.805649
0.804295
0.80681
0.808575
0.807537
0.802895
0.794474
0.782419
0.767016
0.748578
0.727386
0.703654
0.677533
0.649133
0.618578
0.586054
0.551889
0.516622
0.481089
0.446477
0.414329
0.386413
0.364392
0.349344
0.341427
0.339957
0.343856
0.352085
0.363852
0.37862
0.396042
0.415883
0.437952
0.462064
0.488009
0.515549
0.544415
0.574321
0.604977
0.636111
0.667478
0.69888
0.73017
0.761251
0.792078
0.822637
0.852921
0.882893
0.912439
0.941312
0.969072
0.995045
1.0183
1.0377
1.05196
1.05985
1.0603
1.05267
1.03709
1.01509
0.991027
0.975797
1.02744
0.908146
0.819486
0.801568
0.798316
0.799398
0.800095
0.798285
0.793116
0.784379
0.772185
0.756788
0.738468
0.717473
0.69398
0.668107
0.639934
0.609555
0.577131
0.542965
0.507578
0.471781
0.436741
0.403989
0.3753
0.352371
0.336349
0.327458
0.325051
0.328061
0.335445
0.346408
0.360414
0.377122
0.396302
0.41777
0.441348
0.466831
0.493982
0.522532
0.55219
0.582662
0.613665
0.64494
0.676273
0.707495
0.73849
0.769188
0.799553
0.829564
0.859178
0.888286
0.916666
0.943922
0.969441
0.992371
1.01165
1.02608
1.0345
1.03591
1.02976
1.01623
0.996983
0.976519
0.965837
1.02279
0.90983
0.81797
0.797637
0.792539
0.792229
0.791886
0.789319
0.783628
0.774568
0.762222
0.746814
0.728595
0.70778
0.684515
0.658887
0.630945
0.600755
0.568454
0.534322
0.498854
0.462841
0.427427
0.39413
0.364727
0.340954
0.324024
0.314228
0.310965
0.313173
0.319805
0.330057
0.343392
0.359467
0.378059
0.398988
0.422081
0.447138
0.473923
0.50217
0.531584
0.561868
0.59273
0.623904
0.655158
0.686308
0.717217
0.747794
0.777983
0.807747
0.837032
0.865735
0.893651
0.920422
0.945492
0.968079
0.987199
1.00174
1.01061
1.01288
1.00806
0.996447
0.979785
0.962732
0.956366
1.01832
0.911536
0.816514
0.793822
0.786928
0.785264
0.783907
0.780597
0.774388
0.765001
0.752491
0.737056
0.718921
0.698271
0.675226
0.649841
0.622138
0.592155
0.560004
0.52594
0.490435
0.454255
0.418522
0.384736
0.354679
0.330121
0.31234
0.301704
0.297652
0.299134
0.305092
0.31471
0.327444
0.34295
0.361005
0.381437
0.404075
0.428724
0.455153
0.483094
0.512257
0.542339
0.573045
0.604101
0.635266
0.666338
0.697165
0.727637
0.757677
0.787231
0.816234
0.844583
0.872085
0.898415
0.923066
0.945319
0.964267
0.978876
0.98812
0.991154
0.987562
0.977722
0.96349
0.949658
0.947372
1.014
0.913253
0.815089
0.790092
0.78145