/*--------------------------------*- C++ -*----------------------------------*\
| =========                 |                                                 |
| \\      /  F ield         | OpenFOAM: The Open Source CFD Toolbox           |
|  \\    /   O peration     | Version:  1.7.x                                 |
|   \\  /    A nd           | Web:      www.OpenFOAM.com                      |
|    \\/     M anipulation  |                                                 |
\*---------------------------------------------------------------------------*/
FoamFile
{
    version     2.0;
    format      ascii;
    class       volScalarField;
    location    "50";
    object      nut;
}
// * * * * * * * * * * * * * * * * * * * * * * * * * * * * * * * * * * * * * //

dimensions      [0 2 -1 0 0 0 0];

internalField   nonuniform List<scalar> 
52875
(
3.43961e-05
1.16747e-05
3.27472e-06
9.434e-07
3.88167e-07
3.89113e-07
9.32704e-07
2.85925e-06
7.94345e-06
1.70508e-05
2.74098e-05
3.57059e-05
4.11102e-05
4.4271e-05
4.60238e-05
4.69743e-05
4.74899e-05
4.77762e-05
4.79437e-05
4.80496e-05
4.81233e-05
4.81794e-05
4.8225e-05
4.82634e-05
4.82965e-05
4.83249e-05
4.83487e-05
4.83679e-05
4.83824e-05
4.83922e-05
4.83971e-05
4.83972e-05
4.83926e-05
4.83835e-05
4.83699e-05
4.83521e-05
4.833e-05
4.8304e-05
4.82743e-05
4.82411e-05
4.82044e-05
4.81635e-05
4.81162e-05
4.80573e-05
4.79762e-05
4.78528e-05
4.76488e-05
4.72955e-05
4.66706e-05
4.55644e-05
4.36334e-05
4.03658e-05
3.514e-05
2.7584e-05
1.84108e-05
9.93867e-06
4.37443e-06
1.69017e-06
6.59112e-07
3.65529e-07
4.50452e-07
1.09621e-06
3.55668e-06
1.19705e-05
3.42133e-05
3.36239e-05
2.58815e-05
1.53362e-05
6.20769e-06
1.90134e-06
6.66549e-07
5.59848e-07
1.26056e-06
3.25252e-06
5.98346e-06
7.73241e-06
8.29285e-06
8.34476e-06
8.30602e-06
8.33093e-06
8.4709e-06
8.75088e-06
9.19677e-06
9.84704e-06
1.0758e-05
1.2008e-05
1.36969e-05
1.59348e-05
1.88091e-05
2.23191e-05
2.62889e-05
3.02969e-05
3.37384e-05
3.59816e-05
3.65185e-05
3.51349e-05
3.20344e-05
2.7827e-05
2.33233e-05
1.92144e-05
1.58642e-05
1.33246e-05
1.14776e-05
1.01597e-05
9.22376e-06
8.55433e-06
8.06703e-06
7.70174e-06
7.41666e-06
7.18346e-06
6.98425e-06
6.80935e-06
6.65587e-06
6.52635e-06
6.42721e-06
6.36506e-06
6.33679e-06
6.30059e-06
6.10314e-06
5.37891e-06
3.78752e-06
1.93136e-06
8.42083e-07
5.58544e-07
9.251e-07
2.62534e-06
7.6257e-06
1.69103e-05
2.67858e-05
3.32881e-05
3.22876e-05
4.09897e-05
3.81577e-05
2.85424e-05
2.0928e-05
2.36027e-05
4.00492e-05
6.46749e-05
9.09753e-05
0.000116344
0.00013968
0.000160209
0.000177288
0.000190403
0.000199187
0.000203439
0.000203121
0.000198366
0.000189467
0.000176875
0.000161183
0.000143117
0.000123513
0.000103295
8.34547e-05
6.50309e-05
4.91241e-05
3.69921e-05
3.02891e-05
3.10539e-05
4.04856e-05
5.80202e-05
8.22947e-05
0.000111922
0.000145574
0.000181932
0.000219683
0.000257536
0.000294235
0.000328572
0.000359503
0.000386128
0.0004077
0.000423631
0.00043349
0.000437003
0.000434051
0.000424667
0.000409035
0.000387489
0.000360509
0.000328719
0.000292877
0.00025385
0.000212591
0.000170097
0.000127436
8.61262e-05
4.9962e-05
2.75592e-05
2.38497e-05
3.16413e-05
4.06687e-05
4.22038e-05
3.18709e-05
3.31707e-05
7.27032e-05
0.000120385
0.000185282
0.000270608
0.000369076
0.000471762
0.000572199
0.000666416
0.000752048
0.000827652
0.000892327
0.000945528
0.000986965
0.00101655
0.00103434
0.00104054
0.00103549
0.00101972
0.000993984
0.000959284
0.000916941
0.000868653
0.000816611
0.000763647
0.000713385
0.000670338
0.000639796
0.000627224
0.000637007
0.00067092
0.000727422
0.000802447
0.000890913
0.000987847
0.00108882
0.00118997
0.00128781
0.0013792
0.00146134
0.00153181
0.0015887
0.00163057
0.00165648
0.00166592
0.00165889
0.0016358
0.00159738
0.00154456
0.00147848
0.00140041
0.00131167
0.00121354
0.00110725
0.00099399
0.000875018
0.000751796
0.000626264
0.000501293
0.000381404
0.000273402
0.000185296
0.000120821
7.32433e-05
3.26861e-05
3.57804e-05
0.000122203
0.000250517
0.000400717
0.000557032
0.000709614
0.000853047
0.000984445
0.00110226
0.00120566
0.00129426
0.00136793
0.00142681
0.00147121
0.00150169
0.00151895
0.00152379
0.00151711
0.00149978
0.00147281
0.00143741
0.00139507
0.00134762
0.0012974
0.00124749
0.00120182
0.00116524
0.00114312
0.00114056
0.00116142
0.00120725
0.00127669
0.00136621
0.00147146
0.0015882
0.00171244
0.00184027
0.00196753
0.00208986
0.00220287
0.00230248
0.00238513
0.0024478
0.00248806
0.00250429
0.00249597
0.00246349
0.00240814
0.0023321
0.00223825
0.00212973
0.0020095
0.00187999
0.00174288
0.00159914
0.00144915
0.00129295
0.00113049
0.000962009
0.000788388
0.000611793
0.000436674
0.000271716
0.000130919
3.56765e-05
3.70987e-05
0.000144113
0.000303879
0.000478654
0.000649846
0.000809326
0.000953646
0.00108147
0.00119243
0.00128668
0.0013646
0.00142677
0.0014739
0.00150686
0.0015267
0.00153464
0.00153204
0.00152031
0.00150081
0.00147481
0.00144359
0.00140854
0.00137133
0.00133403
0.00129926
0.00127032
0.00125121
0.00124618
0.00125918
0.00129299
0.00134843
0.00142406
0.00151695
0.00162379
0.00174144
0.00186686
0.00199689
0.00212802
0.00225641
0.00237812
0.00248931
0.00258629
0.00266545
0.00272335
0.0027573
0.00276554
0.00274733
0.00270316
0.00263485
0.00254534
0.00243804
0.00231632
0.00218296
0.00203995
0.00188836
0.00172847
0.00155993
0.00138204
0.0011941
0.000995868
0.000788166
0.000574084
0.000361283
0.000168249
3.80835e-05
3.69347e-05
0.000144612
0.000305107
0.000476364
0.00064031
0.000789985
0.000922835
0.00103816
0.00113609
0.00121717
0.00128215
0.00133192
0.00136744
0.00138979
0.00140022
0.00140011
0.00139102
0.00137458
0.00135244
0.00132616
0.0012972
0.00126702
0.00123725
0.00120987
0.00118732
0.00117259
0.00116911
0.00118044
0.00120961
0.00125837
0.00132653
0.00141228
0.00151304
0.0016263
0.00174981
0.00188132
0.00201826
0.0021575
0.0022954
0.00242802
0.00255133
0.00266129
0.00275367
0.0028243
0.00286971
0.00288748
0.00287635
0.00283667
0.00277044
0.00268102
0.00257238
0.00244835
0.00231211
0.00216583
0.00201062
0.00184658
0.00167307
0.00148894
0.00129302
0.00108456
0.000863975
0.000633859
0.000401509
0.000186122
3.9448e-05
3.59784e-05
0.000137479
0.000288387
0.000447575
0.000598095
0.000733795
0.000852641
0.000954287
0.00103913
0.00110793
0.00116158
0.0012011
0.00122755
0.00124205
0.00124587
0.00124038
0.00122713
0.00120778
0.00118402
0.00115753
0.0011299
0.00110272
0.00107769
0.00105679
0.00104241
0.00103742
0.00104495
0.00106793
0.00110843
0.00116692
0.00124221
0.00133219
0.00143467
0.00154783
0.00167011
0.00179986
0.00193494
0.0020726
0.00220944
0.00234174
0.00246572
0.00257751
0.00267303
0.00274806
0.00279902
0.00282336
0.00281966
0.00278803
0.00273033
0.00264977
0.00255016
0.00243519
0.00230782
0.00217
0.00202258
0.00186542
0.00169757
0.00151763
0.00132414
0.0011161
0.000893682
0.000659287
0.000419995
0.000195181
4.02629e-05
3.47995e-05
0.000128985
0.00026837
0.000414357
0.000551183
0.000673305
0.000779058
0.000868342
0.00094173
0.00100009
0.00104442
0.00107578
0.00109523
0.00110392
0.00110307
0.001094
0.0010782
0.00105725
0.00103279
0.0010065
0.000980017
0.000955011
0.000933283
0.000916916
0.00090838
0.000910491
0.000926077
0.000957357
0.00100523
0.00106899
0.00114688
0.00123687
0.00133731
0.00144698
0.00156484
0.00168966
0.00181967
0.00195245
0.00208496
0.00221384
0.0023357
0.00244708
0.00254418
0.00262293
0.00267976
0.00271201
0.00271801
0.00269752
0.0026519
0.00258385
0.00249668
0.00239364
0.00227735
0.00214949
0.00201075
0.00186091
0.00169902
0.00152368
0.00133347
0.00112741
0.000905641
0.000670456
0.000428778
0.000199886
4.08014e-05
3.37041e-05
0.000121255
0.000249832
0.000383798
0.000508447
0.000618693
0.000713151
0.000791909
0.000855667
0.000905373
0.000942066
0.000966816
0.00098071
0.000984874
0.000980502
0.000968886
0.000951427
0.000929628
0.000905059
0.000879322
0.000854043
0.000830924
0.000811845
0.00079899
0.000794882
0.000802185
0.000823207
0.000859197
0.00090993
0.00097394
0.00104928
0.00113419
0.00122738
0.0013279
0.00143491
0.00154735
0.00166374
0.00178207
0.00189993
0.00201485
0.00212444
0.00222619
0.00231706
0.00239358
0.00245262
0.00249163
0.00250869
0.00250297
0.00247496
0.00242625
0.00235901
0.00227545
0.00217737
0.00206594
0.00194157
0.00180401
0.00165249
0.00148593
0.00130327
0.0011039
0.000888245
0.000658733
0.00042222
0.000197638
4.09471e-05
3.28246e-05
0.000114665
0.000233814
0.000357468
0.000471849
0.00057221
0.000657361
0.000727515
0.000783448
0.000826149
0.000856676
0.000876111
0.000885552
0.000886133
0.000879044
0.000865558
0.000847031
0.000824894
0.000800635
0.000775784
0.000751935
0.000730818
0.000714407
0.00070501
0.000705192
0.000717414
0.00074339
0.00078351
0.000836823
0.000901617
0.000976141
0.00105903
0.00114935
0.00124647
0.0013498
0.00145851
0.00157137
0.00168668
0.00180246
0.0019167
0.00202742
0.00213227
0.00222813
0.00231134
0.00237855
0.0024268
0.00245376
0.00245817
0.00244006
0.00240057
0.00234144
0.0022645
0.00217135
0.00206307
0.00194019
0.0018027
0.00165016
0.00148193
0.00129747
0.00109664
0.00088031
0.00065124
0.00041647
0.000194814
4.09767e-05
3.214e-05
0.00010937
0.000220659
0.000335802
0.000441817
0.000534205
0.000611896
0.000675174
0.000724853
0.000761942
0.000787516
0.000802674
0.000808537
0.000806265
0.000797064
0.000782204
0.000763013
0.000740863
0.000717171
0.000693397
0.000671104
0.00065205
0.000638297
0.000632252
0.000636467
0.000653117
0.000683327
0.000726839
0.000782326
0.00084809
0.000922633
0.00100489
0.00109423
0.00119024
0.00129253
0.00140047
0.00151299
0.00162859
0.00174551
0.001862
0.0019762
0.0020857
0.00218716
0.00227673
0.00235083
0.00240621
0.00244027
0.0024515
0.00243971
0.00240576
0.00235114
0.00227749
0.00218626
0.00207851
0.00195485
0.00181543
0.00166008
0.00148852
0.00130059
0.00109658
0.000877776
0.000647347
0.000412672
0.000192724
4.10118e-05
3.16308e-05
0.000105192
0.000210099
0.000318356
0.000417688
0.000503777
0.000575612
0.000633505
0.000678279
0.000710954
0.000732621
0.000744403
0.000747456
0.000742969
0.000732175
0.000716347
0.000696789
0.000674828
0.000651814
0.000629154
0.000608386
0.000591291
0.000580003
0.00057698
0.000584687
0.000604955
0.000638382
0.000684253
0.000741068
0.000807214
0.000881396
0.000962775
0.00105091
0.00114558
0.00124655
0.00135334
0.00146504
0.00158028
0.00169751
0.00181511
0.00193131
0.00204366
0.00214874
0.00224257
0.00232147
0.002382
0.0024214
0.00243797
0.00243126
0.0024019
0.00235115
0.00228046
0.0021912
0.0020844
0.0019607
0.00182038
0.00166349
0.00148998
0.00129998
0.00109413
0.000874014
0.000643091
0.000408996
0.000190801
4.10393e-05
3.12641e-05
0.000101938
0.000201694
0.000304441
0.000398499
0.000479668
0.000546958
0.000600679
0.000641659
0.000670924
0.000689584
0.00069879
0.000699728
0.00069362
0.000681715
0.000665285
0.000645608
0.000623964
0.000601646
0.000580008
0.000560564
0.000545109
0.000535817
0.000535148
0.000545421
0.000568124
0.000603427
0.000650319
0.000707227
0.00077262
0.000845344
0.000924701
0.00101038
0.00110227
0.00120026
0.001304
0.0014127
0.00152522
0.00164019
0.00175621
0.00187168
0.00198422
0.00209041
0.00218626
0.00226801
0.00233213
0.00237568
0.00239675
0.00239466
0.00236976
0.00232305
0.00225583
0.0021693
0.00206448
0.00194206
0.00180246
0.00164591
0.00147264
0.00128307
0.00107811
0.000859615
0.000631251
0.000400773
0.000187083
4.09727e-05
3.1e-05
9.94899e-05
0.000195298
0.000293838
0.000383915
0.000461407
0.000525316
0.000575938
0.000614093
0.000640817
0.000657236
0.00066453
0.000663914
0.000656636
0.000643957
0.000627141
0.00060744
0.000586086
0.000564319
0.000543448
0.000524967
0.00051069
0.00050284
0.000503911
0.000516153
0.000540855
0.00057795
0.000626306
0.000684387
0.000750815
0.000824648
0.000905438
0.000993145
0.00108797
0.00119009
0.00129944
0.00141546
0.00153708
0.00166286
0.00179114
0.00191989
0.00204617
0.00216589
0.0022743
0.00236687
0.00243945
0.00248863
0.00251225
0.00250961
0.00248122
0.00242846
0.00235305
0.00225674
0.00214106
0.0020072
0.00185604
0.00168823
0.00150437
0.00130522
0.00109199
0.000866846
0.000633722
0.000400598
0.000186403
4.10118e-05
3.08047e-05
9.80447e-05
0.000191242
0.000286905
0.00037421
0.000449095
0.000510556
0.000558884
0.000594903
0.000619665
0.000634325
0.000640095
0.000638225
0.000629985
0.000616649
0.000599473
0.000579679
0.000558454
0.00053699
0.000516559
0.000498644
0.000485105
0.000478256
0.000480702
0.000494733
0.000521547
0.000560926
0.000611642
0.00067218
0.000741279
0.000818181
0.000902663
0.000994951
0.00109553
0.0012049
0.00132321
0.00145005
0.0015843
0.00172422
0.00186764
0.00201189
0.00215336
0.00228721
0.00240789
0.00251013
0.00258922
0.00264143
0.00266449
0.00265783
0.00262239
0.00256009
0.0024733
0.00236442
0.00223557
0.00208844
0.00192432
0.00174413
0.00154869
0.00133893
0.00111624
0.000882921
0.000643131
0.000405082
0.000187901
4.11797e-05
3.06776e-05
9.74126e-05
0.000189111
0.000282961
0.000368418
0.000441482
0.000501159
0.000547749
0.000582096
0.00060528
0.000618494
0.00062299
0.000620055
0.000610984
0.000597059
0.000579522
0.00055956
0.000538314
0.000516925
0.000496629
0.000478912
0.000465694
0.00045943
0.000462896
0.00047848
0.000507308
0.000548967
0.000602054
0.000664973
0.000736471
0.00081586
0.000903032
0.000998354
0.00110249
0.00121609
0.00133952
0.00147245
0.00161372
0.0017614
0.00191291
0.00206513
0.00221408
0.00235459
0.00248071
0.00258679
0.00266793
0.00272028
0.00274159
0.00273142
0.00269097
0.00262255
0.00252897
0.00241307
0.0022773
0.00212363
0.00195348
0.00176787
0.0015676
0.00135356
0.0011271
0.000890518
0.000647974
0.000407744
0.000189017
4.13498e-05
3.06216e-05
9.73113e-05
0.000188201
0.000280879
0.00036502
0.000436696
0.000494947
0.000540099
0.000573032
0.000594867
0.000606842
0.000610257
0.000606436
0.000596697
0.00058232
0.000564522
0.000544441
0.000523156
0.00050175
0.000481426
0.00046368
0.000450515
0.00044456
0.00044881
0.000465761
0.000496418
0.000540085
0.000595096
0.000659698
0.000732586
0.000813079
0.00090111
0.000997117
0.00110185
0.0012161
0.00134035
0.00147442
0.00161725
0.00176686
0.00192054
0.00207499
0.00222605
0.0023685
0.00249625
0.00260342
0.00268501
0.00273711
0.00275742
0.00274551
0.00270265
0.00263134
0.00253463
0.00241563
0.00227704
0.00212101
0.00194907
0.00176231
0.00156151
0.00134754
0.00112164
0.000886007
0.000644695
0.00040584
0.000188412
4.14372e-05
3.06402e-05
9.73592e-05
0.000187752
0.000279604
0.000362749
0.000433328
0.000490415
0.000534373
0.000566121
0.000586828
0.000597787
0.000600346
0.000595865
0.000585677
0.000571049
0.000553157
0.000533079
0.000511825
0.000490415
0.000470014
0.000452131
0.000438872
0.000433074
0.000437984
0.000456194
0.000488512
0.00053388
0.000590316
0.000655891
0.000729233
0.000809649
0.000897089
0.000992016
0.00109523
0.00120759
0.00132969
0.00146151
0.00160211
0.00174964
0.0019014
0.00205404
0.00220343
0.00234439
0.00247088
0.00257693
0.00265746
0.00270859
0.00272797
0.00271511
0.00267127
0.00259902
0.00250155
0.00238212
0.00224359
0.00208823
0.00191765
0.00173293
0.00153486
0.00132421
0.00110214
0.000870714
0.000633815
0.000399347
0.000185873
4.14075e-05
3.0723e-05
9.7504e-05
0.000187612
0.000278931
0.000361398
0.000431204
0.000487453
0.000530536
0.000561415
0.00058131
0.000591567
0.000593579
0.000588737
0.000578375
0.000563734
0.000545932
0.000525975
0.000504799
0.000483368
0.000462823
0.000444709
0.000431256
0.000425534
0.000431042
0.000450443
0.000484305
0.000531169
0.000588734
0.000654913
0.000728282
0.000808154
0.000894481
0.000987739
0.00108875
0.00119843
0.00131744
0.00144589
0.00158301
0.00172707
0.00187546
0.00202487
0.00217118
0.00230932
0.00243335
0.00253724
0.00261591
0.00266548
0.00268361
0.00266977
0.00262519
0.00255247
0.00245489
0.00233581
0.00219823
0.00204448
0.00187623
0.00169458
0.00150026
0.00129399
0.00107683
0.000850728
0.000619399
0.000390535
0.000182287
4.12921e-05
3.0867e-05
9.77529e-05
0.000187786
0.00027891
0.000361115
0.000430603
0.000486488
0.000529181
0.000559673
0.00057923
0.00058924
0.000591136
0.000586324
0.000576129
0.000561748
0.00054423
0.000524503
0.000503435
0.000481947
0.000461182
0.000442743
0.000429008
0.000423303
0.000429383
0.000449932
0.000485212
0.000533344
0.000591734
0.000658167
0.000731192
0.000810122
0.00089492
0.000986059
0.00108434
0.00119066
0.0013057
0.00142962
0.00156176
0.00170052
0.00184341
0.00198718
0.00212782
0.00226045
0.00237938
0.00247873
0.00255351
0.00260001
0.00261597
0.00260088
0.00255596
0.00248372
0.00238742
0.00227043
0.00213571
0.0019856
0.00182172
0.00164511
0.00145642
0.00125629
0.00104567
0.000826364
0.000601933
0.000379859
0.000177875
4.11081e-05
3.10659e-05
9.80861e-05
0.000188228
0.000279496
0.000361879
0.00043156
0.000487636
0.000530515
0.000561207
0.000581003
0.000591323
0.000593623
0.000589312
0.000579687
0.00056589
0.000548897
0.000529559
0.000508688
0.000487184
0.000466202
0.000447426
0.000433404
0.000427723
0.000434373
0.000456029
0.000492637
0.000541929
0.000601069
0.00066776
0.000740551
0.000818777
0.000902415
0.000991932
0.0010881
0.0011918
0.00130371
0.001424
0.00155209
0.00168648
0.00182474
0.00196368
0.00209934
0.00222694
0.00234092
0.00243556
0.00250591
0.00254839
0.00256093
0.00254312
0.00249621
0.00242277
0.0023261
0.00220959
0.00207628
0.00192851
0.0017679
0.00159545
0.00141175
0.00121734
0.00101305
0.000800543
0.000583196
0.000368263
0.00017302
4.08803e-05
3.13082e-05
9.84292e-05
0.000188786
0.000280458
0.000363402
0.000433747
0.000490544
0.00053418
0.000565659
0.000586281
0.000597481
0.000600719
0.000597393
0.000588764
0.000575914
0.000559749
0.000541058
0.000520619
0.00049931
0.00047831
0.00045941
0.000445353
0.000439967
0.000447436
0.000470409
0.000508555
0.000559286
0.000619583
0.000687105
0.000760423
0.000838906
0.000922555
0.00101183
0.00110748
0.00121034
0.00132103
0.00143971
0.00156575
0.00169761
0.0018328
0.00196797
0.00209904
0.00222118
0.00232899
0.00241691
0.00248021
0.00251558
0.00252133
0.00249741
0.00244535
0.0023679
0.0022685
0.00215063
0.00201735
0.00187098
0.00171306
0.00154447
0.00136566
0.00117701
0.00097918
0.000773653
0.000563618
0.000356084
0.000167848
4.06203e-05
3.15769e-05
9.87221e-05
0.000189335
0.000281596
0.000365395
0.000436777
0.000494726
0.000539589
0.000572348
0.000594295
0.000606861
0.000611498
0.000609584
0.000602342
0.000590802
0.000575821
0.000558155
0.000538566
0.000517934
0.000497492
0.000479188
0.000466007
0.000461985
0.000471408
0.000496825
0.000537644
0.000591033
0.000653862
0.000723795
0.000799459
0.000880289
0.000966326
0.00105804
0.00115614
0.00126139
0.00137429
0.00149484
0.00162221
0.00175458
0.00188908
0.00202193
0.00214862
0.00226414
0.0023632
0.00244062
0.00249211
0.002515
0.0025084
0.00247299
0.00241089
0.00232525
0.00221971
0.00209785
0.00196266
0.00181632
0.00166017
0.00149485
0.00132057
0.00113745
0.000945905
0.000747204
0.000544322
0.000344037
0.000162743
4.03476e-05
3.18592e-05
9.89107e-05
0.000189757
0.000282701
0.000367539
0.000440207
0.000499609
0.000546035
0.000580436
0.00060408
0.000618385
0.000624786
0.000624642
0.000619149
0.00060931
0.000595966
0.000579893
0.000561889
0.000542906
0.00052433
0.000508358
0.000498258
0.000498212
0.000512394
0.000543029
0.000589191
0.000647877
0.000715963
0.00079122
0.000872418
0.000959113
0.00105142
0.00114983
0.00125499
0.00136747
0.00148754
0.00161479
0.0017479
0.00188441
0.00202065
0.00215202
0.00227329
0.00237908
0.00246429
0.00252449
0.00255643
0.00255863
0.00253152
0.00247709
0.00239841
0.00229919
0.00218329
0.00205424
0.00191481
0.00176685
0.00161133
0.00144849
0.00127815
0.00110011
0.000914469
0.000722227
0.000526127
0.000332712
0.000157957
4.00794e-05
3.21446e-05
9.89343e-05
0.000189904
0.000283509
0.000369427
0.000443472
0.000504461
0.000552625
0.000588872
0.000614446
0.000630744
0.00063919
0.000641136
0.000637778
0.000630138
0.000619112
0.000605575
0.000590479
0.000575001
0.000560842
0.000550566
0.000547716
0.000556417
0.000580346
0.000621033
0.000677083
0.000745429
0.000823149
0.000908315
0.000999983
0.00109793
0.00120237
0.00131377
0.00143257
0.00155901
0.00169276
0.00183269
0.00197653
0.00212073
0.00226047
0.00238996
0.002503
0.0025938
0.0026576
0.00269122
0.00269323
0.00266407
0.00260613
0.00252317
0.0024196
0.00229987
0.002168
0.00202732
0.00188017
0.00172786
0.00157081
0.00140873
0.00124095
0.00106684
0.000886147
0.000699548
0.000509522
0.000322369
0.000153589
3.9834e-05
3.24229e-05
9.87232e-05
0.000189592
0.000283679
0.000370546
0.00044588
0.000508409
0.000558304
0.000596433
0.000624012
0.000642425
0.000653098
0.000657402
0.000656581
0.000651742
0.000643928
0.000634239
0.000623936
0.000614611
0.000608447
0.000608432
0.000618237
0.000641598
0.000681292
0.00073787
0.000809423
0.000892933
0.000985843
0.00108666
0.0011948
0.00131022
0.00143312
0.00156366
0.00170175
0.00184679
0.00199741
0.00215124
0.00230476
0.00245316
0.00259057
0.00271035
0.00280587
0.00287136
0.00290291
0.00289905
0.00286083
0.00279132
0.00269513
0.00257788
0.00244527
0.00230233
0.00215297
0.00199998
0.00184494
0.00168842
0.00153006
0.00136895
0.0012039
0.00103383
0.000858134
0.000677176
0.000493185
0.000312216
0.00014934
3.96106e-05
3.26782e-05
9.82508e-05
0.000188702
0.000282957
0.000370483
0.000446845
0.000510686
0.00056212
0.000601976
0.000631447
0.000651909
0.000664805
0.000671549
0.000673473
0.000671827
0.000667871
0.000663016
0.000658941
0.000657752
0.00066216
0.000675524
0.000701496
0.000743278
0.000802724
0.000879514
0.000971312
0.00107511
0.00118857
0.00131042
0.00144017
0.00157766
0.00172265
0.00187456
0.00203227
0.00219394
0.00235687
0.00251743
0.00267104
0.00281225
0.00293496
0.0030328
0.00309978
0.00313108
0.00312402
0.00307875
0.00299844
0.00288851
0.00275561
0.00260664
0.00244812
0.00228533
0.00212185
0.00195971
0.00179962
0.00164125
0.00148352
0.0013249
0.00116374
0.000998568
0.000828507
0.000653687
0.000476124
0.000301656
0.000144921
3.93966e-05
3.28975e-05
9.75453e-05
0.000187233
0.000281267
0.00036906
0.00044607
0.000510859
0.000563487
0.000604743
0.000635799
0.000658022
0.000672871
0.000681805
0.000686244
0.000687579
0.000687275
0.000687026
0.000688881
0.000695376
0.000709642
0.00073531
0.000776039
0.000834737
0.000912784
0.00100944
0.00112211
0.00124756
0.00138317
0.0015273
0.00167897
0.00183739
0.00200148
0.00216966
0.00233972
0.00250875
0.00267313
0.0028286
0.00297037
0.00309321
0.00319175
0.00326073
0.00329551
0.00329267
0.00325077
0.00317106
0.00305779
0.00291771
0.00275865
0.00258825
0.0024132
0.00223869
0.00206791
0.00190222
0.00174153
0.00158479
0.00143032
0.00127612
0.00112023
0.000960954
0.000797235
0.000629065
0.000458323
0.000290669
0.000140318
3.91772e-05
3.30746e-05
9.66657e-05
0.000185284
0.000278711
0.000366355
0.00044359
0.000508902
0.000562297
0.000604528
0.000636735
0.000660272
0.000676593
0.000687181
0.000693503
0.000697033
0.000699355
0.00070232
0.000708178
0.000719692
0.000740211
0.000773538
0.000823436
0.000892875
0.00098329
0.00109402
0.00122244
0.00136495
0.00151822
0.00167973
0.00184762
0.00202019
0.00219554
0.00237132
0.00254464
0.00271211
0.0028699
0.00301379
0.00313935
0.00324203
0.00331738
0.00336128
0.00337031
0.00334219
0.00327641
0.00317481
0.00304201
0.00288511
0.00271238
0.00253171
0.0023497
0.00217129
0.00199935
0.00183473
0.00167686
0.0015242
0.00137467
0.00122602
0.0010761
0.000923121
0.000765934
0.000604473
0.000440537
0.000279688
0.00013574
3.89488e-05
3.32123e-05
9.56691e-05
0.00018298
0.000275468
0.000362592
0.000439656
0.000505084
0.000558829
0.000601604
0.000634515
0.000658887
0.000676152
0.000687779
0.000695234
0.000700001
0.000703679
0.000708137
0.000715652
0.000729009
0.000751581
0.000787218
0.000839811
0.000912572
0.00100729
0.00112372
0.00125944
0.00141059
0.00157312
0.00174355
0.0019191
0.00209731
0.0022757
0.0024515
0.00262164
0.00278268
0.00293096
0.0030626
0.00317366
0.00326025
0.00331865
0.0033456
0.0033385
0.00329584
0.00321765
0.00310607
0.00296572
0.00280357
0.0026278
0.00244621
0.00226515
0.00208924
0.00192107
0.00176124
0.00160886
0.00146212
0.00131875
0.0011764
0.00103285
0.000886304
0.000735619
0.000580735
0.000423438
0.000269178
0.000131375
3.8714e-05
3.33165e-05
9.46045e-05
0.000180444
0.000271741
0.000358045
0.000434616
0.00049982
0.000553565
0.000596521
0.000629759
0.000654564
0.000672329
0.000684484
0.000692453
0.000697671
0.000701681
0.000706276
0.000713636
0.000726434
0.00074793
0.000781912
0.000832347
0.000902707
0.000995221
0.00111018
0.00124556
0.00139753
0.00156152
0.00173331
0.0019094
0.0020868
0.00226267
0.00243412
0.00259809
0.0027513
0.00289033
0.00301168
0.00311185
0.00318742
0.00323522
0.00325252
0.00323724
0.00318832
0.00310609
0.00299278
0.00285286
0.002693
0.00252103
0.00234444
0.00216927
0.00199981
0.00183844
0.0016856
0.00154024
0.00140046
0.00126392
0.00112824
0.00099122
0.000851105
0.000706803
0.00055828
0.000407329
0.000259326
0.000127313
3.84793e-05
3.33944e-05
9.3511e-05
0.000177777
0.000267705
0.000352971
0.000428806
0.000493532
0.000547013
0.000589883
0.000623174
0.000648129
0.000666092
0.000678436
0.000686519
0.000691698
0.000695416
0.000699341
0.000705499
0.000716382
0.000735064
0.000765195
0.000810742
0.000875387
0.000961762
0.00107071
0.00120074
0.00134823
0.0015084
0.00167655
0.00184868
0.00202143
0.0021918
0.00235687
0.00251368
0.00265915
0.00279013
0.00290342
0.00299586
0.00306439
0.0031062
0.0031189
0.00310071
0.00305082
0.00296968
0.00285949
0.00272452
0.00257105
0.00240649
0.00223793
0.00207107
0.00190991
0.00175665
0.00161164
0.00147382
0.00134124
0.00121159
0.00108251
0.000951874
0.000817979
0.000679789
0.000537313
0.000392353
0.000250222
0.000123591
3.82491e-05
3.34516e-05
9.24192e-05
0.000175062
0.000263505
0.000347581
0.000422512
0.00048658
0.000539617
0.000582222
0.000615391
0.000640323
0.000658311
0.000670663
0.000678659
0.000683564
0.000686703
0.000689602
0.000694114
0.000702528
0.000717699
0.000743097
0.000782631
0.000840121
0.000918543
0.00101925
0.00114131
0.00128147
0.00143497
0.00159685
0.00176277
0.00192915
0.00209288
0.00225109
0.00240093
0.00253952
0.00266394
0.00277121
0.00285843
0.00292278
0.00296169
0.00297297
0.00295501
0.00290711
0.00282974
0.00272503
0.002597
0.00245155
0.00229566
0.00213602
0.001978
0.00182536
0.00168018
0.00154279
0.00141215
0.00128636
0.00116315
0.00104022
0.000915517
0.000787398
0.000654884
0.000518019
0.000378612
0.00024191
0.000120222
3.80281e-05
3.34936e-05
9.13515e-05
0.000172358
0.000259251
0.000342041
0.000415956
0.00047925
0.000531725
0.000573953
0.000606896
0.000631716
0.00064965
0.000661939
0.000669783
0.000674346
0.000676837
0.000678637
0.000681426
0.000687288
0.000698857
0.000719406
0.000752739
0.000802753
0.000872701
0.000964387
0.00107743
0.00120901
0.00135456
0.00150899
0.00166778
0.00182718
0.00198404
0.00213555
0.00227896
0.00241156
0.00253059
0.00263329
0.00271691
0.00277883
0.00281662
0.00282822
0.00281214
0.00276768
0.00269532
0.00259704
0.00247665
0.00233968
0.00219266
0.00204191
0.00189252
0.00174803
0.00161044
0.0014801
0.00135603
0.0012364
0.00111902
0.00100167
0.000882354
0.000759496
0.000632165
0.000500435
0.000366117
0.000234388
0.000117199
3.7819e-05
3.35244e-05
9.0323e-05
0.00016971
0.000255025
0.000336476
0.000409307
0.000471753
0.000523592
0.000565375
0.000598038
0.000622703
0.000640558
0.000652777
0.000660476
0.000664723
0.000666609
0.00066738
0.000668551
0.000672013
0.000680187
0.000696144
0.000723561
0.000766361
0.000828014
0.000910717
0.0010146
0.00113733
0.00127458
0.00142131
0.00157285
0.00172536
0.00187566
0.00202098
0.00215865
0.00228609
0.00240067
0.00249976
0.00258078
0.00264121
0.00267875
0.00269144
0.00267784
0.00263727
0.00257016
0.00247839
0.00236552
0.00223676
0.00209824
0.00195591
0.00181459
0.00167766
0.00154704
0.00142313
0.00130501
0.00119095
0.00107883
0.00096653
0.000852104
0.000734037
0.000611441
0.000484412
0.000354759
0.000227584
0.00011449
3.76237e-05
3.35474e-05
8.93434e-05
0.000167148
0.000250887
0.000330975
0.000402684
0.000464237
0.000515395
0.000556693
0.000589044
0.000613537
0.000631311
0.000643477
0.000651068
0.000655056
0.000656423
0.000656289
0.000656016
0.00065732
0.000662423
0.000674201
0.000696194
0.000732313
0.000786202
0.0008604
0.000955516
0.00106969
0.00119892
0.00133824
0.00148295
0.00162912
0.00177354
0.00191343
0.00204619
0.0021693
0.00228022
0.00237643
0.00245544
0.00251484
0.00255243
0.00256631
0.00255512
0.0025182
0.00245596
0.00237016
0.00226419
0.00214293
0.00201216
0.00187749
0.0017435
0.00161343
0.00148912
0.00137101
0.00125826
0.00114924
0.00104192
0.000934217
0.000824272
0.000710613
0.000592386
0.000469704
0.000344366
0.000221395
0.00011205
3.74422e-05
3.35652e-05
8.84179e-05
0.000164692
0.000246877
0.0003256
0.00039617
0.000456803
0.00050725
0.000548035
0.000580052
0.000604362
0.000622059
0.000634189
0.000641707
0.000645494
0.000646429
0.000645517
0.000643985
0.000643386
0.000645765
0.000653819
0.000670945
0.000701025
0.000747839
0.000814228
0.000901245
0.0010075
0.00112933
0.00126192
0.00140053
0.0015412
0.00168063
0.00181603
0.00194479
0.0020644
0.00217238
0.00226626
0.00234363
0.00240216
0.00243975
0.00245458
0.00244536
0.00241149
0.00235336
0.00227268
0.00217267
0.00205794
0.00193396
0.00180604
0.00167854
0.00155455
0.00143587
0.00132296
0.00121506
0.00111061
0.00100765
0.000904182
0.000798381
0.000688821
0.000574671
0.000456055
0.000334754
0.000215705
0.00010983
3.72737e-05
3.358e-05
8.7548e-05
0.000162352
0.000243017
0.000320387
0.000389814
0.000449512
0.000499229
0.000539478
0.000571143
0.000595258
0.000612873
0.000624974
0.000632441
0.000636066
0.000636636
0.000635055
0.000632426
0.000630161
0.000630144
0.00063491
0.000647723
0.000672422
0.000712894
0.000772253
0.000851964
0.000951089
0.00106632
0.00119301
0.00132643
0.00146253
0.00159797
0.00172984
0.0018555
0.0019724
0.00207806
0.00217003
0.00224596
0.00230362
0.00234098
0.00235634
0.00234849
0.00231691
0.00226203
0.00218552
0.00209046
0.00198124
0.00186305
0.00174093
0.00161907
0.0015004
0.00138668
0.00127839
0.00117484
0.00107453
0.00097557
0.000876008
0.000774066
0.000668344
0.000558031
0.000443253
0.000325767
0.000210416
0.000107782
3.71171e-05
3.35935e-05
8.67321e-05
0.000160129
0.000239317
0.000315357
0.000383646
0.000442404
0.000491375
0.000531071
0.000562365
0.000586268
0.000603789
0.000615854