/*--------------------------------*- C++ -*----------------------------------*\
| =========                 |                                                 |
| \\      /  F ield         | OpenFOAM: The Open Source CFD Toolbox           |
|  \\    /   O peration     | Version:  1.7.x                                 |
|   \\  /    A nd           | Web:      www.OpenFOAM.com                      |
|    \\/     M anipulation  |                                                 |
\*---------------------------------------------------------------------------*/
FoamFile
{
    version     2.0;
    format      ascii;
    class       surfaceScalarField;
    location    "50";
    object      phi;
}
// * * * * * * * * * * * * * * * * * * * * * * * * * * * * * * * * * * * * * //

dimensions      [0 3 -1 0 0 0 0];

internalField   nonuniform List<scalar> 
105235
(
7.13733e-07
1.66695e-06
1.07133e-06
2.10303e-06
1.21825e-06
2.39328e-06
1.25299e-06
2.58518e-06
1.23399e-06
2.71841e-06
1.19182e-06
2.8209e-06
1.14006e-06
2.90977e-06
1.08392e-06
2.99317e-06
1.02575e-06
3.07418e-06
9.66285e-07
3.15429e-06
9.05898e-07
3.23421e-06
8.4443e-07
3.31428e-06
7.81854e-07
3.39451e-06
7.18114e-07
3.47486e-06
6.5315e-07
3.55529e-06
5.86961e-07
3.63577e-06
5.19483e-07
3.71629e-06
4.50745e-07
3.79683e-06
3.80681e-07
3.8774e-06
3.09326e-07
3.95797e-06
2.36621e-07
4.03857e-06
1.62596e-07
4.11917e-06
8.72084e-08
4.19979e-06
1.04726e-08
4.2804e-06
-6.7621e-08
4.36101e-06
-1.4708e-07
4.44161e-06
-2.27904e-07
4.52221e-06
-3.10172e-07
4.60287e-06
-3.93902e-07
4.68357e-06
-4.79242e-07
4.76437e-06
-5.66228e-07
4.84525e-06
-6.55021e-07
4.92624e-06
-7.45637e-07
5.0073e-06
-8.38227e-07
5.08844e-06
-9.32756e-07
5.1696e-06
-1.02932e-06
5.2508e-06
-1.12784e-06
5.332e-06
-1.22842e-06
5.41321e-06
-1.33099e-06
5.49443e-06
-1.43562e-06
5.57568e-06
-1.5423e-06
5.65694e-06
-1.65107e-06
5.73824e-06
-1.76194e-06
5.81956e-06
-1.87496e-06
5.90092e-06
-1.99015e-06
5.98231e-06
-2.10756e-06
6.06374e-06
-2.22721e-06
6.14522e-06
-2.34919e-06
6.22676e-06
-2.47352e-06
6.30836e-06
-2.60038e-06
6.39007e-06
-2.72976e-06
6.4719e-06
-2.86195e-06
6.55394e-06
-2.99703e-06
6.63623e-06
-3.13531e-06
6.71889e-06
-3.27698e-06
6.80187e-06
-3.42205e-06
6.88485e-06
-3.56933e-06
6.96667e-06
-3.71597e-06
7.04525e-06
-3.85426e-06
7.1162e-06
-3.96628e-06
7.16919e-06
-4.00975e-06
7.1795e-06
-3.89001e-06
7.09581e-06
-3.42603e-06
6.83115e-06
-2.29903e-06
6.24731e-06
5.15016e-06
2.42105e-07
1.42571e-06
4.28479e-07
1.91814e-06
5.55586e-07
2.26809e-06
6.22315e-07
2.5209e-06
6.43448e-07
2.70013e-06
6.39881e-07
2.82736e-06
6.25989e-07
2.9267e-06
6.07091e-07
3.01488e-06
5.851e-07
3.09897e-06
5.60311e-07
3.18162e-06
5.33309e-07
3.26371e-06
5.04424e-07
3.34563e-06
4.73959e-07
3.42748e-06
4.4207e-07
3.5093e-06
4.08864e-07
3.59108e-06
3.74545e-07
3.67278e-06
3.39169e-07
3.75441e-06
3.02922e-07
3.83594e-06
2.65792e-07
3.91742e-06
2.27927e-07
3.99885e-06
1.89186e-07
4.08032e-06
1.49567e-07
4.16187e-06
1.08796e-07
4.24358e-06
6.6688e-08
4.3255e-06
2.29114e-08
4.40767e-06
-2.28122e-08
4.49007e-06
-7.05846e-08
4.57264e-06
-1.20485e-07
4.65523e-06
-1.72104e-07
4.73763e-06
-2.24965e-07
4.81959e-06
-2.78312e-07
4.90106e-06
-3.31906e-07
4.98233e-06
-3.85661e-07
5.06375e-06
-4.40012e-07
5.14561e-06
-4.95422e-07
5.22805e-06
-5.526e-07
5.31112e-06
-6.12071e-07
5.3948e-06
-6.74496e-07
5.47899e-06
-7.4016e-07
5.56354e-06
-8.09312e-07
5.64827e-06
-8.81851e-07
5.73299e-06
-9.57633e-07
5.8175e-06
-1.03619e-06
5.90163e-06
-1.11696e-06
5.9852e-06
-1.19921e-06
6.0681e-06
-1.28215e-06
6.15024e-06
-1.36493e-06
6.23159e-06
-1.4467e-06
6.31216e-06
-1.5267e-06
6.39202e-06
-1.60424e-06
6.47131e-06
-1.67875e-06
6.55015e-06
-1.74983e-06
6.62877e-06
-1.8171e-06
6.7073e-06
-1.88029e-06
6.78589e-06
-1.93893e-06
6.86444e-06
-1.99262e-06
6.9426e-06
-2.04092e-06
7.01916e-06
-2.08221e-06
7.0909e-06
-2.11076e-06
7.14916e-06
-2.10767e-06
7.17052e-06
-2.02806e-06
7.10418e-06
-1.80839e-06
6.87942e-06
-1.40001e-06
6.42664e-06
-7.9645e-07
5.64798e-06
4.35372e-06
4.96734e-08
1.37669e-06
1.01843e-07
1.86706e-06
1.714e-07
2.19968e-06
2.49375e-07
2.4446e-06
3.24095e-07
2.6273e-06
3.88005e-07
2.765e-06
4.39209e-07
2.87679e-06
4.78179e-07
2.97678e-06
5.06252e-07
3.07158e-06
5.24419e-07
3.16398e-06
5.33514e-07
3.25509e-06
5.34239e-07
3.3453e-06
5.27419e-07
3.43466e-06
5.13967e-07
3.52309e-06
4.94959e-07
3.61043e-06
4.71578e-07
3.6965e-06
4.45148e-07
3.78119e-06
4.17023e-07
3.86443e-06
3.88622e-07
3.94621e-06
3.61267e-07
4.02661e-06
3.36241e-07
4.1058e-06
3.14589e-07
4.18401e-06
2.97197e-07
4.26154e-06
2.84611e-07
4.33874e-06
2.77068e-07
4.41597e-06
2.7448e-07
4.49361e-06
2.76194e-07
4.57203e-06
2.81201e-07
4.65164e-06
2.87377e-07
4.73297e-06
2.91932e-07
4.81659e-06
2.91546e-07
4.90284e-06
2.83334e-07
4.9917e-06
2.65001e-07
5.08305e-06
2.34607e-07
5.17677e-06
1.90649e-07
5.27265e-06
1.32014e-07
5.37029e-06
5.81444e-08
5.46913e-06
-3.09863e-08
5.56852e-06
-1.34818e-07
5.66772e-06
-2.5222e-07
5.766e-06
-3.81536e-07
5.8626e-06
-5.20612e-07
5.95687e-06
-6.66885e-07
6.04817e-06
-8.17417e-07
6.136e-06
-9.69e-07
6.21995e-06
-1.11821e-06
6.29971e-06
-1.26149e-06
6.37513e-06
-1.39523e-06
6.44617e-06
-1.51586e-06
6.51294e-06
-1.61995e-06
6.57569e-06
-1.70424e-06
6.63477e-06
-1.76579e-06
6.69065e-06
-1.80198e-06
6.74386e-06
-1.81054e-06
6.79485e-06
-1.78954e-06
6.84391e-06
-1.73715e-06
6.89081e-06
-1.65155e-06
6.93424e-06
-1.52981e-06
6.97051e-06
-1.36963e-06
6.99047e-06
-1.16631e-06
6.97179e-06
-9.29322e-07
6.86976e-06
-6.66588e-07
6.62597e-06
-4.11975e-07
6.18237e-06
-1.94807e-07
5.44387e-06
4.15891e-06
-6.85479e-08
1.44615e-06
-9.98218e-08
1.89924e-06
-7.08384e-08
2.17155e-06
7.43346e-09
2.36685e-06
1.1414e-07
2.52098e-06
2.27208e-07
2.65217e-06
3.33063e-07
2.77112e-06
4.26287e-07
2.8837e-06
5.05166e-07
2.99283e-06
5.69362e-07
3.09989e-06
6.19188e-07
3.20535e-06
6.5533e-07
3.30924e-06
6.78744e-07
3.41134e-06
6.90643e-07
3.51128e-06
6.92481e-07
3.60868e-06
6.85937e-07
3.70314e-06
6.72891e-07
3.79434e-06
6.5538e-07
3.88204e-06
6.35564e-07
3.96614e-06
6.15616e-07
4.04667e-06
5.9768e-07
4.12385e-06
5.83708e-07
4.1981e-06
5.75378e-07
4.27e-06
5.73866e-07
4.34037e-06
5.79744e-07
4.41021e-06
5.92721e-07
4.48075e-06
6.11534e-07
4.55335e-06
6.33806e-07
4.62949e-06
6.56286e-07
4.7106e-06
6.75106e-07
4.79788e-06
6.86018e-07
4.89204e-06
6.84675e-07
4.99315e-06
6.67123e-07
5.10069e-06
6.30301e-07
5.21368e-06
5.72194e-07
5.33083e-06
4.91935e-07
5.45063e-06
3.89647e-07
5.57149e-06
2.66415e-07
5.69182e-06
1.241e-07
5.8101e-06
-3.47552e-08
5.92492e-06
-2.07125e-07
6.03504e-06
-3.89564e-07
6.13937e-06
-5.78345e-07
6.23701e-06
-7.69484e-07
6.32721e-06
-9.5884e-07
6.40936e-06
-1.14209e-06
6.48303e-06
-1.31477e-06
6.54788e-06
-1.47225e-06
6.60371e-06
-1.60973e-06
6.65049e-06
-1.72228e-06
6.68829e-06
-1.80483e-06
6.71739e-06
-1.85233e-06
6.73821e-06
-1.85975e-06
6.75133e-06
-1.82225e-06
6.75742e-06
-1.73537e-06
6.75709e-06
-1.59521e-06
6.75072e-06
-1.39889e-06
6.73797e-06
-1.14536e-06
6.71715e-06
-8.38638e-07
6.68384e-06
-4.95163e-07
6.6284e-06
-1.56146e-07
6.53174e-06
1.0896e-07
6.35934e-06
2.38203e-07
6.05231e-06
1.85223e-07
5.49542e-06
4.34414e-06
-6.19309e-08
1.50762e-06
-6.77168e-08
1.9047e-06
-2.013e-08
2.12362e-06
6.26046e-08
2.28401e-06
1.62991e-07
2.42056e-06
2.68816e-07
2.54634e-06
3.72901e-07
2.66706e-06
4.7123e-07
2.78536e-06
5.61632e-07
2.90241e-06
6.42927e-07
3.01858e-06
7.14483e-07
3.13378e-06
7.76048e-07
3.24767e-06
8.27633e-07
3.35974e-06
8.69497e-07
3.46942e-06
9.02086e-07
3.57609e-06
9.26049e-07
3.67918e-06
9.42224e-07
3.77817e-06
9.51625e-07
3.87265e-06
9.55425e-07
3.96234e-06
9.54903e-07
4.04719e-06
9.51412e-07
4.12735e-06
9.46252e-07
4.20325e-06
9.40627e-07
4.27562e-06
9.35462e-07
4.34551e-06
9.31322e-07
4.41434e-06
9.28185e-07
4.48385e-06
9.2542e-07
4.55607e-06
9.21664e-07
4.63318e-06
9.14953e-07
4.71725e-06
9.02853e-07
4.8099e-06
8.82837e-07
4.91197e-06
8.52533e-07
5.02336e-06
8.10009e-07
5.14312e-06
7.53953e-07
5.26965e-06
6.83748e-07
5.40096e-06
5.99497e-07
5.5348e-06
5.01979e-07
5.66893e-06
3.92571e-07
5.80117e-06
2.73086e-07
5.92953e-06
1.45661e-07
6.05229e-06
1.26294e-08
6.16802e-06
-1.23566e-07
6.27552e-06
-2.60471e-07
6.37387e-06
-3.95648e-07
6.46234e-06
-5.26696e-07
6.54037e-06
-6.51229e-07
6.60752e-06
-7.66843e-07
6.66345e-06
-8.71061e-07
6.70788e-06
-9.61259e-07
6.74064e-06
-1.03464e-06
6.76162e-06
-1.08817e-06
6.77087e-06
-1.11866e-06
6.76863e-06
-1.12273e-06
6.75533e-06
-1.09703e-06
6.73162e-06
-1.03831e-06
6.69827e-06
-9.43842e-07
6.65611e-06
-8.1182e-07
6.60579e-06
-6.42321e-07
6.54745e-06
-4.38845e-07
6.48007e-06
-2.1096e-07
6.40041e-06
1.95272e-08
6.30074e-06
2.15465e-07
6.16413e-06
3.17012e-07
5.95184e-06
2.56589e-07
5.55821e-06
4.60071e-06
1.44039e-08
1.49341e-06
6.40535e-08
1.85513e-06
1.38112e-07
2.04971e-06
2.2669e-07
2.19539e-06
3.23433e-07
2.32374e-06
4.2417e-07
2.44551e-06
5.26106e-07
2.56501e-06
6.27343e-07
2.68404e-06
7.26451e-07
2.80323e-06
8.22337e-07
2.92262e-06
9.14143e-07
3.0419e-06
1.0012e-06
3.16055e-06
1.08293e-06
3.27795e-06
1.15891e-06
3.39338e-06
1.2288e-06
3.50614e-06
1.2924e-06
3.61553e-06
1.3496e-06
3.72091e-06
1.40042e-06
3.82177e-06
1.445e-06
3.91771e-06
1.48355e-06
4.00858e-06
1.51638e-06
4.09445e-06
1.54382e-06
4.17574e-06
1.56617e-06
4.25319e-06
1.58362e-06
4.32797e-06
1.59621e-06
4.40164e-06
1.60376e-06
4.47617e-06
1.60586e-06
4.55383e-06
1.60184e-06
4.63703e-06
1.59097e-06
4.72796e-06
1.57244e-06
4.82824e-06
1.54558e-06
4.93864e-06
1.50984e-06
5.05891e-06
1.46484e-06
5.18793e-06
1.41045e-06
5.32387e-06
1.34677e-06
5.46445e-06
1.27426e-06
5.60715e-06
1.19364e-06
5.74939e-06
1.10591e-06
5.88874e-06
1.01228e-06
6.023e-06
9.14145e-07
6.15029e-06
8.12934e-07
6.26909e-06
7.10117e-07
6.37821e-06
6.07125e-07
6.47673e-06
5.05333e-07
6.564e-06
4.06032e-07
6.63954e-06
3.10443e-07
6.70298e-06
2.19736e-07
6.75402e-06
1.35061e-07
6.79242e-06
5.75817e-08
6.81797e-06
-1.15011e-08
6.83055e-06
-7.0923e-08
6.83013e-06
-1.19376e-07
6.8169e-06
-1.55506e-07
6.79127e-06
-1.77984e-07
6.75388e-06
-1.8557e-07
6.70562e-06
-1.77298e-07
6.64755e-06
-1.5258e-07
6.58076e-06
-1.11751e-07
6.5061e-06
-5.58393e-08
6.42375e-06
1.05375e-08
6.33237e-06
8.27242e-08
6.22737e-06
1.44784e-07
6.09702e-06
1.74521e-07
5.91102e-06
1.28892e-07
5.57777e-06
4.72961e-06
5.84029e-08
1.43427e-06
1.36575e-07
1.77639e-06
2.25785e-07
1.95999e-06
3.22245e-07
2.09865e-06
4.23492e-07
2.22229e-06
5.27962e-07
2.34089e-06
6.34502e-07
2.45836e-06
7.42164e-07
2.57627e-06
8.50189e-07
2.69509e-06
9.57925e-07
2.81478e-06
1.06476e-06
2.93497e-06
1.17011e-06
3.0551e-06
1.27343e-06
3.17452e-06
1.37423e-06
3.29249e-06
1.47198e-06
3.40829e-06
1.56623e-06
3.52118e-06
1.65654e-06
3.63051e-06
1.74252e-06
3.7357e-06
1.8238e-06
3.83633e-06
1.90007e-06
3.9322e-06
1.97107e-06
4.02335e-06
2.0365e-06
4.11019e-06
2.09607e-06
4.1935e-06
2.14939e-06
4.2745e-06
2.19601e-06
4.35487e-06
2.23526e-06
4.43674e-06
2.26642e-06
4.52249e-06
2.28863e-06
4.61461e-06
2.30112e-06
4.71527e-06
2.30318e-06
4.82595e-06
2.29437e-06
4.94724e-06
2.27434e-06
5.0787e-06
2.24299e-06
5.21906e-06
2.20032e-06
5.36631e-06
2.14659e-06
5.51798e-06
2.08222e-06
5.67131e-06
2.0079e-06
5.82351e-06
1.92455e-06
5.97191e-06
1.83323e-06
6.11414e-06
1.73514e-06
6.24822e-06
1.63153e-06
6.37254e-06
1.52368e-06
6.48589e-06
1.41287e-06
6.58739e-06
1.30032e-06
6.67641e-06
1.1872e-06
6.75251e-06
1.07465e-06
6.81538e-06
9.63786e-07
6.86474e-06
8.55681e-07
6.90037e-06
7.51425e-07
6.92208e-06
6.52088e-07
6.92972e-06
5.58731e-07
6.92331e-06
4.7238e-07
6.90307e-06
3.93983e-07
6.86947e-06
3.2437e-07
6.82329e-06
2.64167e-07
6.7656e-06
2.1384e-07
6.69768e-06
1.73444e-07
6.62092e-06
1.42892e-07
6.53653e-06
1.21249e-07
6.44516e-06
1.08016e-07
6.34606e-06
9.975e-08
6.23555e-06
9.60202e-08
6.10332e-06
9.0129e-08
5.92185e-06
7.369e-08
5.606e-06
4.8033e-06
7.72238e-08
1.35699e-06
1.6381e-07
1.68969e-06
2.54954e-07
1.86884e-06
3.49108e-07
2.00435e-06
4.45734e-07
2.1255e-06
5.44417e-07
2.24204e-06
6.44822e-07
2.35779e-06
7.46697e-07
2.47425e-06
8.49778e-07
2.59188e-06
9.53801e-07
2.71063e-06
1.05851e-06
2.83013e-06
1.16362e-06
2.94986e-06
1.26883e-06
3.06918e-06
1.37379e-06
3.1874e-06
1.47813e-06
3.30382e-06
1.58143e-06
3.41775e-06
1.68324e-06
3.52856e-06
1.78309e-06
3.63572e-06
1.88046e-06
3.73882e-06
1.97483e-06
3.83769e-06
2.06561e-06
3.93241e-06
2.1522e-06
4.02344e-06
2.23389e-06
4.11163e-06
2.30986e-06
4.19833e-06
2.37918e-06
4.28536e-06
2.44072e-06
4.37497e-06
2.49331e-06
4.46968e-06
2.53571e-06
4.57196e-06
2.56689e-06
4.68384e-06
2.58597e-06
4.80659e-06
2.59246e-06
4.94049e-06
2.58602e-06
5.08487e-06
2.56663e-06
5.2382e-06
2.53442e-06
5.39827e-06
2.4898e-06
5.56235e-06
2.43342e-06
5.72747e-06
2.36614e-06
5.89057e-06
2.289e-06
6.04883e-06
2.20319e-06
6.19974e-06
2.10998e-06
6.34123e-06
2.01067e-06
6.47167e-06
1.90652e-06
6.58986e-06
1.79878e-06
6.69496e-06
1.68862e-06
6.7864e-06
1.57713e-06
6.86383e-06
1.46534e-06
6.927e-06
1.3542e-06
6.97571e-06
1.2446e-06
7.00981e-06
1.13735e-06
7.02915e-06
1.03321e-06
7.03367e-06
9.32867e-07
7.02347e-06
8.36904e-07
6.99883e-06
7.45805e-07
6.96035e-06
6.59958e-07
6.90892e-06
5.79583e-07
6.84572e-06
5.04841e-07
6.7722e-06
4.35634e-07
6.68985e-06
3.71986e-07
6.60003e-06
3.13385e-07
6.5035e-06
2.5951e-07
6.3997e-06
2.10228e-07
6.28514e-06
1.62182e-07
6.14998e-06
1.15069e-07
5.9676e-06
6.24944e-08
5.65532e-06
4.86579e-06
7.12584e-08
1.285e-06
1.46873e-07
1.61348e-06
2.23279e-07
1.79193e-06
3.00367e-07
1.92695e-06
3.78162e-07
2.04746e-06
4.56842e-07
2.16317e-06
5.36587e-07
2.27788e-06
6.17539e-07
2.39313e-06
6.99852e-07
2.5094e-06
7.83644e-07
2.62668e-06
8.68976e-07
2.74465e-06
9.55849e-07
2.86284e-06
1.0442e-06
2.98067e-06
1.1339e-06
3.09755e-06
1.22473e-06
3.21283e-06
1.31642e-06
3.3259e-06
1.40858e-06
3.43623e-06
1.50078e-06
3.54335e-06
1.59247e-06
3.64695e-06
1.68302e-06
3.74695e-06
1.77172e-06
3.84352e-06
1.85771e-06
3.93724e-06
1.94002e-06
4.0291e-06
2.01749e-06
4.12061e-06
2.08884e-06
4.21376e-06
2.15259e-06
4.31094e-06
2.20728e-06
4.4147e-06
2.25155e-06
4.52739e-06
2.28435e-06
4.65076e-06
2.30495e-06
4.78568e-06
2.31306e-06
4.93209e-06
2.30866e-06
5.08898e-06
2.29205e-06
5.25453e-06
2.26378e-06
5.42627e-06
2.22464e-06
5.60124e-06
2.17558e-06
5.77626e-06
2.11776e-06
5.94816e-06
2.05237e-06
6.11399e-06
1.98068e-06
6.27121e-06
1.90395e-06
6.41775e-06
1.8234e-06
6.55202e-06
1.74018e-06
6.67289e-06
1.65535e-06
6.7796e-06
1.56983e-06
6.87173e-06
1.48446e-06
6.94902e-06
1.39989e-06
7.01138e-06
1.31666e-06
7.05876e-06
1.23513e-06
7.09115e-06
1.15552e-06
7.10857e-06
1.07788e-06
7.11111e-06
1.00211e-06
7.09903e-06
9.27978e-07
7.07275e-06
8.55132e-07
7.03296e-06
7.83164e-07
6.98064e-06
7.11633e-07
6.91699e-06
6.40177e-07
6.84338e-06
5.6847e-07
6.76125e-06
4.96424e-07
6.67179e-06
4.23977e-07
6.57559e-06
3.51517e-07
6.4719e-06
2.79197e-07
6.35705e-06
2.08018e-07
6.2211e-06
1.37877e-07
6.03757e-06
6.85437e-08
5.72422e-06
4.93432e-06
5.57975e-08
1.22899e-06
1.12332e-07
1.5567e-06
1.67274e-07
1.73686e-06
2.20837e-07
1.87317e-06
2.73733e-07
1.99434e-06
3.2658e-07
2.11011e-06
3.79926e-07
2.22433e-06
4.34288e-07
2.33858e-06
4.90096e-07
2.45342e-06
5.47708e-07
2.56889e-06
6.07419e-07
2.68476e-06
6.69443e-07
2.80064e-06
7.33898e-07
2.91604e-06
8.0081e-07
3.03045e-06
8.70098e-07
3.14335e-06
9.41585e-07
3.25423e-06
1.01498e-06
3.36264e-06
1.08987e-06
3.46825e-06
1.16573e-06
3.57088e-06
1.2419e-06
3.67055e-06
1.31756e-06
3.76762e-06
1.39173e-06
3.86281e-06
1.46327e-06
3.95731e-06
1.53077e-06
4.05281e-06
1.59274e-06
4.15149e-06
1.64755e-06
4.25581e-06
1.69369e-06
4.36824e-06
1.72988e-06
4.49087e-06
1.75527e-06
4.62503e-06
1.76946e-06
4.77116e-06
1.77248e-06
4.92875e-06
1.76472e-06
5.09642e-06
1.74689e-06
5.27206e-06
1.71996e-06
5.4529e-06
1.68509e-06
5.63582e-06
1.64359e-06
5.81749e-06
1.59682e-06
5.99467e-06
1.54612e-06
6.16444e-06
1.49279e-06
6.3243e-06
1.438e-06
6.4723e-06
1.38283e-06
6.60697e-06
1.32817e-06
6.72733e-06
1.27474e-06
6.83282e-06
1.2231e-06
6.92317e-06
1.17358e-06
6.99834e-06
1.12634e-06
7.05842e-06
1.08133e-06
7.10358e-06
1.03827e-06
7.134e-06
9.9673e-07
7.1499e-06
9.56057e-07
7.15157e-06
9.15444e-07
7.13942e-06
8.73952e-07
7.114e-06
8.30574e-07
7.07609e-06
7.84311e-07
7.02664e-06
7.34238e-07
6.96677e-06
6.7961e-07
6.8977e-06
6.19913e-07
6.8206e-06
5.54908e-07
6.73636e-06
4.84884e-07
6.64521e-06
4.09827e-07
6.54599e-06
3.31422e-07
6.43464e-06
2.49301e-07
6.30082e-06
1.63785e-07
6.11764e-06
7.28021e-08
5.80229e-06
5.00712e-06
4.1117e-08
1.1872e-06
8.01782e-08
1.51706e-06
1.162e-07
1.70034e-06
1.50201e-07
1.83883e-06
1.83035e-07
1.96123e-06
2.15507e-07
2.07741e-06
2.48338e-07
2.1913e-06
2.82151e-07
2.30457e-06
3.17529e-07
2.41785e-06
3.54973e-07
2.53126e-06
3.94896e-07
2.64465e-06
4.37616e-07
2.75772e-06
4.83356e-07
2.8701e-06
5.32238e-07
2.98137e-06
5.84273e-07
3.09111e-06
6.39365e-07
3.19892e-06
6.97294e-07
3.30449e-06
7.57711e-07
3.4076e-06
8.20129e-07
3.50821e-06
8.83896e-07
3.60652e-06
9.48195e-07
3.70305e-06
1.01198e-06
3.79872e-06
1.07403e-06
3.89495e-06
1.13288e-06
3.99363e-06
1.18696e-06
4.09708e-06
1.23462e-06
4.20778e-06
1.27445e-06
4.32806e-06
1.30533e-06
4.45962e-06
1.32665e-06
4.60337e-06
1.33819e-06
4.75927e-06
1.3402e-06
4.9264e-06
1.33325e-06
5.10305e-06
1.31822e-06
5.28678e-06
1.2962e-06
5.47461e-06
1.2685e-06
5.66324e-06
1.23644e-06
5.84927e-06
1.2014e-06
6.02945e-06
1.16465e-06
6.20093e-06
1.12736e-06
6.36135e-06
1.09051e-06
6.50892e-06
1.05489e-06
6.64236e-06
1.02108e-06
6.76093e-06
9.89444e-07
6.86425e-06
9.60116e-07
6.95229e-06
9.3304e-07
7.02521e-06
9.07972e-07
7.08329e-06
8.84497e-07
7.12686e-06
8.62041e-07
7.15626e-06
8.39892e-07
7.17185e-06
8.17209e-07
7.17404e-06
7.93058e-07
7.16335e-06
7.66444e-07
7.14039e-06
7.36359e-07
7.10594e-06
7.01852e-07
7.0609e-06
6.62072e-07
7.00628e-06
6.16383e-07
6.94312e-06
5.64328e-07
6.87234e-06
5.05861e-07
6.79454e-06
4.41088e-07
6.70962e-06
3.70813e-07
6.61602e-06
2.95792e-07
6.50928e-06
2.18047e-07
6.37855e-06
1.39407e-07
6.19619e-06
6.36977e-08
5.87778e-06
5.07082e-06
2.97277e-08
1.15717e-06
5.6335e-08
1.49014e-06
7.96134e-08
1.67687e-06
1.00531e-07
1.81766e-06
1.20177e-07
1.94134e-06
1.39443e-07
2.05791e-06
1.59089e-07
2.17144e-06
1.79802e-07
2.28366e-06
2.02176e-07
2.39528e-06
2.26715e-07
2.50652e-06
2.53859e-07
2.61731e-06
2.83959e-07
2.72742e-06
3.17278e-07
2.83658e-06
3.53991e-07
2.94445e-06
3.94174e-07
3.0507e-06
4.37802e-07
3.15506e-06
4.84736e-07
3.25732e-06
5.34711e-07
3.35737e-06
5.87321e-07
3.45534e-06
6.41979e-07
3.55158e-06
6.97921e-07
3.64681e-06
7.54153e-07
3.74217e-06
8.09482e-07
3.83929e-06
8.62471e-07
3.94028e-06
9.11619e-07
4.04756e-06
9.55423e-07
4.1636e-06
9.92661e-07
4.29045e-06
1.02245e-06
4.42946e-06
1.04437e-06
4.58109e-06
1.05839e-06
4.74489e-06
1.06484e-06
4.91962e-06
1.06431e-06
5.10325e-06
1.05766e-06
5.29313e-06
1.04584e-06
5.48613e-06
1.02995e-06
5.67884e-06
1.0111e-06
5.86785e-06
9.90323e-07
6.04996e-06
9.68568e-07
6.22243e-06
9.46632e-07
6.38305e-06
9.25142e-07
6.53018e-06
9.04544e-07
6.66274e-06
8.85097e-07
6.78016e-06
8.6689e-07
6.88225e-06
8.49856e-07
6.96912e-06
8.33788e-07
7.04108e-06
8.18363e-07
7.09853e-06
8.03152e-07
7.14188e-06
7.87643e-07
7.17157e-06
7.71242e-07
7.18805e-06
7.5329e-07
7.1918e-06
7.33081e-07
7.18335e-06
7.09885e-07
7.16337e-06
6.82976e-07
7.13262e-06
6.51686e-07
7.09195e-06
6.15417e-07
7.04229e-06
5.73731e-07
6.98454e-06
5.26317e-07
6.91945e-06
4.73128e-07
6.84741e-06
4.14363e-07
6.76804e-06
3.50222e-07
6.67953e-06
2.81927e-07
6.57707e-06
2.09597e-07
6.44937e-06
1.3442e-07
6.26809e-06
5.74301e-08
5.94711e-06
5.12824e-06
1.94832e-08
1.13709e-06
3.57957e-08
1.47329e-06
4.87988e-08
1.66342e-06
5.96359e-08
1.80649e-06
6.92561e-08
1.93144e-06
7.85021e-08
2.04843e-06
8.80964e-08
2.16164e-06
9.86563e-08
2.27289e-06
1.10745e-07
2.38299e-06
1.24852e-07
2.49222e-06
1.41393e-07
2.60056e-06
1.60714e-07
2.7079e-06
1.83095e-07
2.81398e-06
2.08742e-07
2.91858e-06
2.37784e-07
3.02143e-06
2.70267e-07
3.12234e-06
3.06139e-07
3.22119e-06
3.45229e-07
3.31802e-06
3.87232e-07
3.41306e-06
4.31674e-07
3.50684e-06
4.77902e-07
3.60027e-06
5.2502e-07
3.69471e-06
5.71952e-07
3.792e-06
6.17406e-07
3.89445e-06
6.60055e-07
4.00454e-06
6.98612e-07
4.12465e-06
7.32108e-07
4.25657e-06
7.5989e-07
4.4013e-06
7.81719e-07
4.5589e-06
7.97644e-07
4.72861e-06
8.0801e-07
4.90892e-06
8.13325e-07
5.09761e-06
8.14273e-07
5.29187e-06
8.11606e-07
5.4885e-06
8.06129e-07
5.68404e-06
7.9861e-07
5.8751e-06
7.89778e-07
6.05855e-06
7.80255e-07
6.23172e-06
7.70553e-07
6.39252e-06
7.61047e-07
6.53946e-06
7.51982e-07
6.6716e-06
7.43471e-07
6.78847e-06
7.35498e-07
6.89003e-06
7.2793e-07
6.9765e-06
7.20531e-07
7.0483e-06
7.12979e-07
7.1059e-06
7.04871e-07
7.14981e-06
6.95733e-07
7.18053e-06
6.85032e-07
7.19857e-06
6.72192e-07
7.20445e-06
6.56602e-07
7.19875e-06
6.37645e-07
7.18213e-06
6.14725e-07
7.15533e-06
5.87298e-07
7.11916e-06
5.549e-07
7.07445e-06
5.17212e-07
7.02198e-06
4.74041e-07
6.96234e-06
4.25439e-07
6.89572e-06
3.71605e-07
6.82153e-06
3.13058e-07
6.73766e-06
2.50675e-07
6.63902e-06
1.85392e-07
6.51392e-06
1.18664e-07
6.33336e-06
5.26047e-08
6.00979e-06
5.18084e-06
1.22904e-08
1.12448e-06
2.21015e-08
1.46315e-06
2.91194e-08
1.65617e-06
3.41191e-08
1.80124e-06
3.80173e-08
1.9273e-06
4.15703e-08
2.04465e-06
4.54134e-08
2.15758e-06
5.01084e-08
2.26799e-06
5.61419e-08
2.37676e-06
6.39327e-08
2.48423e-06
7.38577e-08
2.59044e-06
8.62396e-08
2.69531e-06
1.01353e-07
2.79866e-06
1.1942e-07
2.90029e-06
1.40609e-07
3.00001e-06
1.65021e-07
3.09769e-06
1.92682e-07
3.19328e-06
2.23521e-07
3.28691e-06
2.57353e-07
3.37894e-06
2.93832e-07
3.47005e-06
3.32461e-07
3.56132e-06
3.72525e-07
3.65429e-06
4.13145e-07
3.75103e-06
4.53241e-07
3.85396e-06
4.91721e-07
3.96567e-06
5.27545e-07
4.08843e-06
5.59927e-07
4.22381e-06
5.88334e-07
4.37251e-06
6.12542e-07
4.53434e-06
6.32523e-07
4.70829e-06
6.48459e-07
4.89266e-06
6.60655e-07
5.0851e-06
6.69545e-07
5.2827e-06
6.7562e-07
5.48215e-06
6.79442e-07
5.67996e-06
6.81577e-07
5.87271e-06
6.82582e-07
6.0573e-06
6.8294e-07
6.23113e-06
6.8305e-07
6.39219e-06
6.83186e-07
6.53912e-06
6.83484e-07
6.6711e-06
6.83932e-07
6.78783e-06
6.84384e-07
6.88939e-06
6.84572e-07
6.97614e-06
6.84128e-07
7.04857e-06
6.82608e-07
7.10725e-06
6.79515e-07
7.15273e-06
6.74324e-07
7.18556e-06
6.66493e-07
7.20623e-06
6.55497e-07
7.21528e-06
6.40831e-07
7.21324e-06
6.22048e-07
7.20073e-06
5.98759e-07
7.17842e-06
5.70675e-07
7.14704e-06
5.37594e-07
7.10731e-06
4.99449e-07
7.05989e-06
4.56294e-07
7.00524e-06
4.083e-07
6.94338e-06
3.5597e-07
6.87355e-06
2.99473e-07
6.79344e-06
2.40093e-07
6.69768e-06
1.78192e-07
6.57422e-06
1.14114e-07
6.3935e-06
4.81553e-08
6.06672e-06
5.22899e-06
9.90301e-09
1.11408e-06
1.75404e-08
1.45505e-06
2.28335e-08
1.6505e-06
2.65772e-08
1.7972e-06
2.94696e-08
1.92416e-06
3.21277e-08
2.04178e-06
3.50757e-08
2.15443e-06
3.8762e-08
2.26411e-06
4.36034e-08
2.37173e-06
4.99699e-08
2.47767e-06
5.81987e-08
2.58202e-06
6.85882e-08
2.68472e-06
8.14101e-08
2.78563e-06
9.69e-08
2.88459e-06
1.15257e-07
2.98143e-06
1.36632e-07
3.07607e-06
1.61122e-07
3.16854e-06
1.88739e-07
3.25902e-06
2.19405e-07
3.34799e-06
2.52913e-07
3.43624e-06
2.8892e-07
3.52499e-06
3.26882e-07
3.61599e-06
3.66107e-07
3.71145e-06
4.0572e-07
3.81398e-06
4.44797e-07
3.92622e-06
4.82421e-07
4.05042e-06
5.17862e-07
4.18801e-06
5.50555e-07
4.33946e-06
5.80152e-07
4.50441e-06
6.06441e-07
4.68168e-06
6.29372e-07
4.86943e-06
6.48992e-07
5.06519e-06
6.65487e-07
5.26593e-06
6.79136e-07
5.46824e-06
6.90325e-07
5.66853e-06
6.99478e-07
5.86333e-06
7.07048e-07
6.04952e-06
7.13437e-07
6.22454e-06
7.18953e-07
6.38649e-06
7.23757e-07
6.53413e-06
7.27853e-07
6.66683e-06
7.31088e-07
6.78443e-06
7.3317e-07
6.88715e-06
7.33703e-07
6.97545e-06
7.32224e-07
7.0499e-06
7.28245e-07
7.11108e-06
7.2128e-07
7.15955e-06
7.1088e-07
7.19581e-06
6.96657e-07
7.22031e-06
6.78307e-07
7.23348e-06
6.55616e-07
7.23578e-06
6.28485e-07
7.22771e-06
5.96906e-07
7.20984e-06
5.60991e-07
7.18279e-06
5.2091e-07
7.14721e-06
4.76956e-07
7.10367e-06
4.29422e-07
7.05257e-06
3.7876e-07
6.99388e-06
3.25344e-07
6.92675e-06
2.69875e-07
6.84879e-06
2.12859e-07
6.7545e-06
1.55568e-07
6.63158e-06
9.91793e-08
6.45003e-06
4.60813e-08
6.12012e-06
5.27507e-06
6.99222e-09
1.10679e-06
1.27151e-08
1.44902e-06
1.68567e-08
1.64614e-06
1.97719e-08
1.79405e-06
2.20137e-08
1.9217e-06
2.40685e-08
2.03952e-06
2.63621e-08
2.15195e-06
2.92877e-08
2.26101e-06
3.32072e-08
2.36764e-06
3.84515e-08
2.47225e-06
4.53423e-08
2.57495e-06
5.41788e-08
2.6757e-06
6.52452e-08
2.77437e-06
7.88026e-08
2.87083e-06
9.50885e-08
2.96493e-06
1.14302e-07
3.05664e-06
1.36598e-07
3.146e-06
1.62064e-07
3.2333e-06
1.90708e-07
3.31908e-06
2.22412e-07
3.40424e-06
2.56942e-07
3.49016e-06
2.93878e-07
3.57872e-06
3.32643e-07
3.67234e-06
3.72458e-07
3.7738e-06
4.12475e-07
3.88585e-06
4.51822e-07
4.01072e-06
4.89766e-07
4.14972e-06
5.2571e-07
4.30319e-06
5.59232e-07
4.47057e-06
5.90023e-07
4.65059e-06
6.17908e-07
4.84127e-06
6.42804e-07
5.04004e-06
6.64745e-07
5.24375e-06
6.83838e-07
5.44892e-06
7.00283e-07
5.65187e-06
7.14316e-07
5.8491e-06
7.26187e-07
6.03746e-06
7.36094e-07
6.21445e-06
7.44161e-07
6.37825e-06
7.50397e-07
6.52774e-06
7.54698e-07
6.66238e-06
7.56855e-07
6.78213e-06
7.56591e-07
6.88728e-06
7.5359e-07
6.97832e-06
7.47528e-07
7.05583e-06
7.38103e-07
7.12038e-06
7.25054e-07
7.17248e-06
7.08191e-07
7.21255e-06
6.87397e-07
7.24098e-06
6.6265e-07
7.25811e-06
6.34016e-07
7.26429e-06
6.01663e-07
7.25994e-06
5.65827e-07
7.24554e-06
5.26829e-07
7.22166e-06
4.85007e-07
7.18888e-06
4.4076e-07
7.14778e-06
3.94433e-07
7.09874e-06
3.46439e-07
7.04173e-06
2.97087e-07
6.97593e-06
2.46714e-07
6.89895e-06
1.95819e-07
6.80525e-06
1.44479e-07
6.68243e-06
9.33327e-08
6.50024e-06
4.29397e-08
6.16839e-06
5.31801e-06
3.84135e-09
1.10256e-06
6.6657e-09
1.44583e-06
8.1956e-09
1.6443e-06
8.70943e-09
1.7933e-06
8.57594e-09
1.92162e-06
8.18472e-09
2.03973e-06
7.90343e-09
2.15206e-06
8.07607e-09
2.26067e-06
9.04986e-09
2.3665e-06
1.11583e-08
2.46997e-06
1.4733e-08
2.57121e-06
2.00936e-08
2.67016e-06
2.7557e-08
2.76673e-06
3.74234e-08
2.86077e-06
4.9976e-08
2.95218e-06
6.54652e-08
3.04094e-06
8.40994e-08
3.12715e-06
1.06017e-07
3.21115e-06
1.31278e-07
3.29357e-06
1.59826e-07
3.37542e-06
1.91479e-07
3.45822e-06
2.25862e-07
3.54403e-06
2.62435e-07
3.63545e-06
3.00446e-07
3.73545e-06
3.39057e-07
3.84691e-06
3.77408e-07
3.97204e-06
4.14792e-07
4.11202e-06
4.5065e-07
4.26703e-06
4.84602e-07
4.43634e-06
5.16379e-07
4.61855e-06
5.45824e-07
4.81158e-06
5.72841e-07
5.01278e-06
5.97413e-07
5.21896e-06
6.19555e-07
5.42657e-06
6.39324e-07
5.63192e-06
6.56774e-07
5.83147e-06
6.71957e-07
6.02211e-06
6.84888e-07
6.20137e-06
6.95534e-07
6.36746e-06
7.03797e-07
6.51934e-06
7.09521e-07
6.65653e-06
7.12509e-07
6.77902e-06
7.1254e-07
6.88714e-06
7.09391e-07
6.98136e-06
7.02853e-07
7.06226e-06
6.92754e-07
7.13038e-06
6.78961e-07
7.18617e-06
6.61401e-07
7.23001e-06
6.40061e-07
7.26222e-06
6.1501e-07
7.28305e-06
5.86385e-07
7.2928e-06
5.5441e-07
7.2918e-06
5.19368e-07
7.28046e-06
4.81611e-07
7.2593e-06
4.41507e-07
7.22886e-06
3.99475e-07
7.18969e-06
3.55895e-07
7.14217e-06
3.1119e-07
7.0863e-06
2.65691e-07
7.02127e-06
2.19791e-07
6.9447e-06
1.7383e-07
6.85104e-06
1.28185e-07
6.72785e-06
8.3201e-08
6.54479e-06
3.93524e-08
6.21126e-06
5.35736e-06
-1.62165e-09
1.10393e-06
-3.73527e-09
1.44769e-06
-6.83934e-09
1.64722e-06
-1.0941e-08
1.7972e-06
-1.57541e-08
1.92625e-06
-2.09524e-08
2.04476e-06
-2.62033e-08
2.15716e-06
-3.11684e-08
2.26548e-06
-3.55047e-08
2.37069e-06
-3.88728e-08
2.47319e-06
-4.092e-08
2.5731e-06
-4.12967e-08
2.67038e-06
-3.96495e-08
2.76492e-06
-3.56362e-08
2.85659e-06
-2.89284e-08
2.94529e-06
-1.92315e-08
3.03105e-06
-6.29478e-09
3.114e-06
1.00615e-08
3.19457e-06
2.99332e-08
3.27346e-06
5.32853e-08
3.35181e-06
7.99525e-08
3.43128e-06
1.0957e-07
3.51412e-06
1.4159e-07
3.60313e-06
1.75238e-07
3.70149e-06
2.09667e-07
3.81217e-06
2.44056e-07
3.93734e-06
2.77776e-07
4.07801e-06
3.10384e-07
4.23414e-06
3.41626e-07
4.40484e-06
3.71356e-07
4.58857e-06
3.99522e-07
4.78319e-06
4.26111e-07
4.98598e-06
4.51135e-07
5.19375e-06
4.74595e-07
5.40293e-06
4.96479e-07
5.60986e-06
5.16738e-07
5.81105e-06
5.35295e-07
6.00341e-06
5.52034e-07
6.18449e-06
5.66806e-07
6.35256e-06
5.79431e-07
6.5066e-06
5.89704e-07
6.64615e-06
5.97399e-07
6.77122e-06
6.02292e-07
6.88214e-06
6.04166e-07
6.97939e-06
6.02819e-07
7.06352e-06
5.98079e-07
7.13503e-06
5.89804e-07
7.19435e-06
5.77899e-07
7.24183e-06
5.62316e-07
7.27771e-06
5.43073e-07
7.30221e-06
5.20248e-07
7.31553e-06
4.93998e-07
7.31796e-06
4.64539e-07
7.30982e-06
4.32163e-07
7.29157e-06
3.97194e-07
7.26371e-06
3.60017e-07
7.22675e-06
3.21018e-07
7.18104e-06
2.80616e-07
7.12656e-06
2.39257e-07
7.06249e-06
1.97282e-07
6.98641e-06
1.553e-07
6.89276e-06
1.13592e-07
6.76902e-06
7.24589e-08
6.58464e-06
3.22808e-08
6.24855e-06
5.38964e-06
-6.11566e-09
1.10975e-06
-1.34753e-08
1.45476e-06
-2.21053e-08
1.65561e-06
-3.18598e-08
1.80677e-06
-4.2484e-08
1.93671e-06
-5.36649e-08
2.05579e-06
-6.50728e-08
2.16843e-06
-7.63729e-08
2.27665e-06
-8.7208e-08
2.3814e-06
-9.72166e-08
2.48307e-06
-1.06022e-07
2.58177e-06
-1.13244e-07
2.67746e-06
-1.18496e-07
2.77002e-06
-1.21396e-07
2.85933e-06
-1.21578e-07
2.94531e-06
-1.18708e-07
3.028e-06
-1.12501e-07
3.10761e-06
-1.02753e-07
3.18462e-06
-8.93482e-08
3.25984e-06
-7.23117e-08
3.33454e-06
-5.18125e-08
3.41054e-06
-2.82323e-08
3.49026e-06
-2.1343e-09
3.57675e-06
2.57091e-08
3.67335e-06
5.44724e-08
3.78312e-06
8.33967e-08
3.90813e-06
1.1196e-07
4.04918e-06
1.39857e-07
4.20599e-06
1.66978e-07
4.37749e-06
1.93323e-07
4.56201e-06
2.18964e-07
4.75735e-06
2.43974e-07
4.96079e-06
2.68437e-07
5.16911e-06
2.92381e-07
5.37882e-06
3.15765e-07
5.58633e-06
3.38471e-07
5.78821e-06
3.60316e-07
5.98144e-06
3.81064e-07
6.16362e-06
4.00446e-07
6.33307e-06
4.18173e-07
6.48877e-06
4.33944e-07
6.63028e-06
4.47464e-07
6.75761e-06
4.58448e-07
6.87107e-06
4.66634e-07
6.97112e-06
4.71784e-07
7.05829e-06
4.73692e-07
7.13304e-06
4.72189e-07
7.19578e-06
4.67149e-07
7.24679e-06
4.58493e-07
7.28629e-06
4.46202e-07
7.31442e-06
4.30318e-07
7.33134e-06
4.10955e-07
7.33723e-06
3.88285e-07
7.3324e-06
3.62552e-07
7.31721e-06
3.34035e-07
7.29213e-06
3.03077e-07
7.25761e-06
2.70029e-07