/*--------------------------------*- C++ -*----------------------------------*\
| =========                 |                                                 |
| \\      /  F ield         | OpenFOAM: The Open Source CFD Toolbox           |
|  \\    /   O peration     | Version:  1.7.x                                 |
|   \\  /    A nd           | Web:      www.OpenFOAM.com                      |
|    \\/     M anipulation  |                                                 |
\*---------------------------------------------------------------------------*/
FoamFile
{
    version     2.0;
    format      ascii;
    class       volVectorField;
    location    "50";
    object      U;
}
// * * * * * * * * * * * * * * * * * * * * * * * * * * * * * * * * * * * * * //

dimensions      [0 1 -1 0 0 0 0];

internalField   nonuniform List<vector> 
52875
(
(0.0204742 1.18886e-13 6.09172)
(0.0448914 1.82957e-13 7.13851)
(0.0608147 1.48042e-11 7.65373)
(0.0623408 2.64557e-13 7.87192)
(0.0597672 2.16173e-13 7.95807)
(0.0562556 1.48641e-13 7.99095)
(0.0524464 1.37577e-13 8.00296)
(0.0485963 3.58385e-13 8.0072)
(0.0448258 1.21915e-12 8.00852)
(0.041221 2.93852e-12 8.00884)
(0.0377977 6.38507e-12 8.00866)
(0.0345058 1.49165e-11 8.00834)
(0.0313132 6.61787e-12 8.00797)
(0.0282147 2.94388e-12 8.00759)
(0.0252079 1.30384e-12 8.00726)
(0.0222879 5.75463e-13 8.00696)
(0.0194491 2.54041e-13 8.00672)
(0.0166862 1.12588e-13 8.00651)
(0.0139941 5.029e-14 8.00635)
(0.011368 2.29283e-14 8.00622)
(0.00880378 1.1349e-14 8.00613)
(0.00629739 7.58885e-15 8.00606)
(0.003846 9.11235e-15 8.00604)
(0.00144773 1.69465e-14 8.00604)
(-0.000906747 3.62174e-14 8.00608)
(-0.00320966 7.84389e-14 8.00614)
(-0.00546898 1.71718e-13 8.00623)
(-0.00768688 3.78182e-13 8.00634)
(-0.00986714 8.40335e-13 8.00648)
(-0.0120145 1.89638e-12 8.00664)
(-0.014134 4.43275e-12 8.00682)
(-0.0162304 6.8824e-12 8.00703)
(-0.018308 6.67409e-12 8.00725)
(-0.0203702 4.16944e-12 8.00751)
(-0.0224188 1.60935e-12 8.00778)
(-0.0244551 6.23926e-13 8.00808)
(-0.0264795 2.44234e-13 8.00839)
(-0.0284924 9.67238e-14 8.00874)
(-0.0304941 3.87002e-14 8.0091)
(-0.0324855 1.55971e-14 8.00949)
(-0.0344673 6.32423e-15 8.0099)
(-0.0364405 2.6082e-15 8.01033)
(-0.038406 1.16579e-15 8.01079)
(-0.0403649 7.04839e-16 8.01127)
(-0.042318 7.64541e-16 8.01177)
(-0.0442666 1.27882e-15 8.01229)
(-0.0462118 2.45772e-15 8.01284)
(-0.0481548 4.85664e-15 8.01343)
(-0.0500969 9.63839e-15 8.01403)
(-0.05204 1.91707e-14 8.01469)
(-0.0539859 3.83694e-14 8.01536)
(-0.0559372 7.78177e-14 8.01608)
(-0.0578962 1.5429e-13 8.0168)
(-0.0598677 3.10825e-13 8.01751)
(-0.0618641 6.44965e-13 8.01811)
(-0.0638991 1.36029e-12 8.01846)
(-0.065959 2.75211e-12 8.01812)
(-0.0679955 9.97943e-12 8.01619)
(-0.0699208 9.04456e-12 8.01011)
(-0.0715448 1.28363e-12 7.99413)
(-0.0725403 5.51909e-13 7.95434)
(-0.0722197 1.01364e-12 7.85771)
(-0.0673498 2.51014e-12 7.62633)
(-0.0479523 6.87737e-12 7.0991)
(-0.0212961 1.97909e-12 6.03865)
(0.00861057 -2.024e-12 5.00217)
(0.0190467 -5.72628e-12 6.40932)
(0.0272262 -2.15594e-11 7.27296)
(0.0306312 -6.2716e-12 7.75736)
(0.0313725 -1.28218e-12 7.99069)
(0.0307719 -5.74922e-14 8.08566)
(0.02958 1.98382e-13 8.12031)
(0.0281393 2.7087e-13 8.13237)
(0.0265891 -1.2557e-12 8.13595)
(0.0250002 -1.61936e-11 8.13681)
(0.0233839 -6.64817e-13 8.13653)
(0.0217333 4.64839e-12 8.13596)
(0.0200643 2.93121e-12 8.1353)
(0.0183979 2.72848e-12 8.13466)
(0.0167469 1.53532e-12 8.13411)
(0.0151194 7.53993e-13 8.13358)
(0.0135208 3.51111e-13 8.13317)
(0.0119547 1.59274e-13 8.13279)
(0.0104228 7.08188e-14 8.13253)
(0.00892555 3.10032e-14 8.13226)
(0.00746169 1.46413e-14 8.13213)
(0.00602764 1.02434e-14 8.132)
(0.00461837 1.45602e-14 8.13198)
(0.00322666 3.08308e-14 8.13199)
(0.0018416 7.01167e-14 8.13206)
(0.000455128 1.5473e-13 8.13216)
(-0.000942404 3.24158e-13 8.13227)
(-0.00235197 6.41903e-13 8.13245)
(-0.00377153 1.19483e-12 8.13265)
(-0.00518394 2.06045e-12 8.13298)
(-0.00656623 3.13996e-12 8.13339)
(-0.0079018 3.35905e-12 8.13393)
(-0.00919084 -3.40317e-12 8.13453)
(-0.0104495 8.67739e-13 8.13521)
(-0.0117017 1.06363e-12 8.1359)
(-0.0129702 6.2709e-13 8.13661)
(-0.0142729 3.02334e-13 8.13732)
(-0.0156212 1.34375e-13 8.13808)
(-0.0170203 5.78805e-14 8.13884)
(-0.0184703 2.51796e-14 8.13965)
(-0.0199663 1.15152e-14 8.14046)
(-0.0215 5.82465e-15 8.14132)
(-0.0230596 3.48657e-15 8.14219)
(-0.0246312 2.67888e-15 8.1431)
(-0.0261991 2.82592e-15 8.14401)
(-0.0277466 4.10472e-15 8.14495)
(-0.029257 7.66297e-15 8.14591)
(-0.0307144 1.20394e-14 8.1469)
(-0.0321037 1.95518e-14 8.14793)
(-0.0334118 3.62425e-14 8.14901)
(-0.034627 7.23832e-14 8.15012)
(-0.0357399 1.46626e-13 8.15131)
(-0.0367417 2.98005e-13 8.15249)
(-0.0376246 5.94412e-13 8.15364)
(-0.0383829 1.16826e-12 8.1545)
(-0.0390188 2.19538e-12 8.1547)
(-0.0395341 3.64031e-12 8.15309)
(-0.0399154 4.0775e-12 8.14688)
(-0.0401103 -2.24887e-12 8.12904)
(-0.0399274 8.4543e-13 8.08239)
(-0.0389075 7.26245e-13 7.96759)
(-0.0362187 8.269e-13 7.70894)
(-0.0307184 3.00444e-13 7.20271)
(-0.0207064 7.39565e-13 6.32515)
(-0.00905399 -3.24663e-13 4.90584)
(0.000877637 -2.40198e-12 4.51303)
(0.00395447 -4.65006e-12 5.97652)
(0.00665865 -8.38698e-12 6.91332)
(0.010122 -4.60003e-12 7.52992)
(0.0137972 -1.51627e-12 7.8997)
(0.0171155 -2.25585e-13 8.07766)
(0.0196989 8.47212e-14 8.14699)
(0.0215009 -7.83624e-14 8.17311)
(0.0226176 -8.33752e-13 8.18378)
(0.0231538 -2.26269e-12 8.18895)
(0.0232078 -9.27484e-13 8.19213)
(0.0228652 -8.89531e-13 8.19465)
(0.0221985 -4.08719e-13 8.19687)
(0.0212717 -8.97471e-13 8.19883)
(0.0201443 -2.15468e-12 8.20044)
(0.0188746 -2.80333e-12 8.20161)
(0.0175202 -3.21183e-12 8.2023)
(0.0161371 -2.97536e-12 8.20251)
(0.0147784 -3.16963e-12 8.20234)
(0.0134923 -3.13558e-12 8.20196)
(0.0123213 -2.75924e-12 8.20158)
(0.0112996 -2.00874e-12 8.20142)
(0.0104522 -1.32213e-12 8.2017)
(0.00979377 -7.80393e-13 8.20257)
(0.0093258 -3.55928e-13 8.20412)
(0.00903513 1.0102e-14 8.20625)
(0.00888789 3.90851e-13 8.20874)
(0.00882777 8.81392e-13 8.21114)
(0.00878319 1.59434e-12 8.213)
(0.00869399 2.57446e-12 8.2138)
(0.00852135 3.52625e-12 8.21358)
(0.00821327 6.96454e-12 8.21294)
(0.00769652 2.17584e-12 8.21275)
(0.00690191 2.72192e-12 8.21377)
(0.00578252 2.35674e-12 8.21638)
(0.00431365 7.08995e-12 8.2207)
(0.00248816 7.67036e-12 8.22654)
(0.000314063 6.69279e-12 8.23358)
(-0.00218744 4.20344e-12 8.24135)
(-0.00497773 2.80734e-12 8.24932)
(-0.00801055 1.97972e-12 8.25694)
(-0.0112278 1.46505e-12 8.26372)
(-0.0145634 1.13607e-12 8.26919)
(-0.0179458 9.24325e-13 8.27299)
(-0.0212997 7.89046e-13 8.27485)
(-0.0245478 7.08581e-13 8.27464)
(-0.0276131 2.45363e-12 8.27235)
(-0.0304204 2.77854e-12 8.2681)
(-0.032898 1.7587e-12 8.26212)
(-0.0349794 9.0008e-13 8.25479)
(-0.036605 1.98056e-12 8.24652)
(-0.0377227 1.32323e-12 8.23779)
(-0.0382889 8.93375e-13 8.22907)
(-0.0382674 5.80859e-13 8.2207)
(-0.0376263 2.59628e-13 8.21277)
(-0.0363327 -2.84301e-13 8.20483)
(-0.0343498 -1.59734e-12 8.19516)
(-0.0316399 9.32078e-15 8.17912)
(-0.0281776 -1.79352e-13 8.14431)
(-0.0239567 3.97154e-13 8.05668)
(-0.0191517 2.19715e-12 7.84623)
(-0.0141591 7.15734e-12 7.43937)
(-0.00940459 6.24953e-12 6.7979)
(-0.00544596 -8.64757e-13 5.84958)
(-0.0013759 -6.85528e-12 4.38493)
(-0.00378813 2.74058e-12 4.69289)
(-0.0061268 5.45626e-12 6.0898)
(-0.00618053 9.88893e-12 6.85886)
(-0.00272394 4.79984e-12 7.31524)
(0.00277122 2.93562e-12 7.58764)
(0.00872752 2.15553e-12 7.7533)
(0.0142018 1.83347e-12 7.86165)
(0.0188117 1.78754e-12 7.93998)
(0.0224859 1.9738e-12 8.00196)
(0.025269 2.42467e-12 8.05414)
(0.0272382 1.16347e-12 8.09944)
(0.0284793 2.39612e-13 8.13902)
(0.0290813 -4.71502e-13 8.17313)
(0.0291355 -1.06914e-12 8.20166)
(0.0287351 -1.59496e-12 8.22436)
(0.0279746 -2.05703e-12 8.24103)
(0.0269488 -2.40655e-12 8.25158)
(0.0257518 -2.72795e-12 8.25612)
(0.0244753 -3.07289e-12 8.25497)
(0.0232064 -3.56959e-12 8.24869)
(0.0220254 -2.90797e-12 8.23805)
(0.0210021 -2.38709e-12 8.22402)
(0.0201933 -1.89126e-12 8.20777)
(0.0196384 -1.39371e-12 8.19059)
(0.0193558 -8.87009e-13 8.17385)
(0.0193387 -3.64541e-13 8.15899)
(0.0195515 1.79978e-13 8.14745)
(0.0199269 7.45977e-13 8.14059)
(0.0203666 1.31622e-12 8.13969)
(0.0207472 1.84441e-12 8.14573)
(0.0209338 2.25487e-12 8.15929)
(0.0207971 2.47209e-12 8.18036)
(0.0202282 2.50098e-12 8.20834)
(0.0191475 2.50281e-12 8.24216)
(0.0175085 2.50784e-12 8.2804)
(0.015297 2.49997e-12 8.32139)
(0.0125295 2.37374e-12 8.36338)
(0.00924848 2.11655e-12 8.40457)
(0.00551735 1.77221e-12 8.44325)
(0.00141471 1.4197e-12 8.47784)
(-0.00296987 1.08863e-12 8.50697)
(-0.00753872 7.92689e-13 8.52946)
(-0.0121921 5.45426e-13 8.54439)
(-0.0168287 1.76296e-13 8.55107)
(-0.0213482 2.5533e-13 8.54907)
(-0.0256515 2.0525e-13 8.53816)
(-0.0296409 1.93981e-13 8.51835)
(-0.0332201 1.57488e-13 8.48987)
(-0.0362938 7.80586e-14 8.45317)
(-0.038768 -2.27134e-14 8.40889)
(-0.0405503 -1.28521e-13 8.35786)
(-0.041551 -2.81393e-13 8.30105)
(-0.0416852 -4.72936e-13 8.2395)
(-0.0408746 -7.08388e-13 8.17419)
(-0.0390501 -1.00544e-12 8.10584)
(-0.0361551 -1.39444e-12 8.03459)
(-0.0321493 -1.91219e-12 7.95935)
(-0.0270182 -1.48362e-12 7.87681)
(-0.0208051 -1.09927e-12 7.77933)
(-0.0137107 -6.53104e-13 7.65116)
(-0.00629128 2.61105e-15 7.46226)
(0.000360327 9.74215e-13 7.16199)
(0.00468053 1.07258e-12 6.67522)
(0.00533377 3.38457e-13 5.886)
(0.00350554 -9.50939e-13 4.49398)
(-0.00364786 2.24908e-12 5.03085)
(-0.0046862 2.61006e-12 6.20683)
(-0.0028649 2.33437e-12 6.74578)
(0.00117839 1.36745e-12 7.05668)
(0.00638148 5.15729e-13 7.26582)
(0.0118831 -2.07658e-13 7.42371)
(0.0171547 -8.59866e-13 7.55339)
(0.0219327 -1.49302e-12 7.66603)
(0.0261059 -2.15334e-12 7.76711)
(0.0296412 -2.8873e-12 7.85913)
(0.0325449 -3.74886e-12 7.94299)
(0.0348437 -3.44015e-12 8.01874)
(0.0365761 -3.27441e-12 8.08602)
(0.0377878 -3.19961e-12 8.14427)
(0.0385298 -3.18023e-12 8.1929)
(0.0388567 -3.19017e-12 8.23146)
(0.0388266 -3.20938e-12 8.25965)
(0.0385004 -3.22144e-12 8.27743)
(0.0379404 -3.21139e-12 8.28506)
(0.0372095 -3.16694e-12 8.28314)
(0.0363689 -3.09127e-12 8.27264)
(0.035476 -3.09412e-12 8.25493)
(0.0345809 -2.21535e-12 8.23178)
(0.0337237 -1.3931e-12 8.20538)
(0.0329298 -5.12308e-13 8.17829)
(0.0322065 4.71464e-13 8.15346)
(0.0315394 1.21242e-12 8.13407)
(0.0308916 1.74152e-12 8.12335)
(0.0302049 1.98502e-12 8.12421)
(0.0294071 2.27404e-12 8.1387)
(0.0284223 2.57437e-12 8.16756)
(0.0271812 2.86287e-12 8.21004)
(0.0256294 2.24815e-12 8.26414)
(0.0237322 1.65822e-12 8.32703)
(0.0214767 1.07617e-12 8.39545)
(0.0188719 4.83777e-13 8.46604)
(0.0159465 -1.41918e-13 8.53556)
(0.0127459 -8.27059e-13 8.60106)
(0.00932744 -1.06368e-12 8.66)
(0.00575587 -1.3926e-12 8.71028)
(0.00209967 -1.79003e-12 8.75029)
(-0.00157306 -2.10283e-12 8.77881)
(-0.00519515 -2.35803e-12 8.79498)
(-0.00870448 -2.40676e-12 8.79825)
(-0.0120429 -2.41077e-12 8.78832)
(-0.0151563 -2.34608e-12 8.76507)
(-0.0179933 -2.33781e-12 8.72851)
(-0.0205043 -2.38143e-12 8.67879)
(-0.0226397 -2.47378e-12 8.61617)
(-0.0243485 -2.60469e-12 8.54107)
(-0.0255772 -2.87814e-12 8.45407)
(-0.0262702 -2.86948e-12 8.35597)
(-0.0263704 -3.01926e-12 8.24778)
(-0.025821 -2.77482e-12 8.13067)
(-0.024569 -2.58029e-12 8.00589)
(-0.0225701 -2.42257e-12 7.87454)
(-0.0197971 -2.27971e-12 7.73731)
(-0.0162526 -2.11871e-12 7.59401)
(-0.0119941 -1.9366e-12 7.44271)
(-0.00717815 -1.7256e-12 7.27837)
(-0.00214696 -1.47661e-12 7.09014)
(0.00247507 -1.19062e-12 6.85574)
(0.00573678 -9.28009e-13 6.52823)
(0.00659717 -7.48192e-13 5.98889)
(0.00451597 -6.65955e-13 4.8447)
(5.42167e-05 4.35373e-12 5.09174)
(0.00232123 6.05376e-12 6.11528)
(0.00628507 7.60452e-12 6.54994)
(0.0110799 3.69051e-12 6.80497)
(0.0162403 1.37116e-12 6.99019)
(0.0214338 -2.2609e-13 7.14328)
(0.0264681 -1.44704e-12 7.27952)
(0.0312341 -2.45498e-12 7.40551)
(0.0356691 -3.33611e-12 7.524)
(0.0397364 -4.13879e-12 7.63582)
(0.0434162 -4.90526e-12 7.74083)
(0.0467 -5.73667e-12 7.83834)
(0.0495868 -5.47031e-12 7.92746)
(0.0520812 -5.35894e-12 8.00722)
(0.0541928 -5.30577e-12 8.07669)
(0.0559351 -5.29177e-12 8.13509)
(0.0573252 -5.30876e-12 8.18183)
(0.0583842 -5.33929e-12 8.21662)
(0.059136 -5.33485e-12 8.2395)
(0.0596072 -5.51562e-12 8.25093)
(0.0598256 -4.8072e-12 8.25184)
(0.0598191 -4.26031e-12 8.24366)
(0.0596133 -3.63329e-12 8.22837)
(0.0592299 -2.98343e-12 8.20849)
(0.058684 -2.33984e-12 8.18707)
(0.0579823 -1.72842e-12 8.16764)
(0.0571228 -1.18159e-12 8.15401)
(0.0560944 -7.42318e-13 8.14997)
(0.0548807 -4.16257e-13 8.15879)
(0.0534635 -2.13326e-13 8.18265)
(0.0518277 -1.42995e-13 8.22217)
(0.0499633 -2.10189e-13 8.27633)
(0.0478666 -4.14689e-13 8.34271)
(0.0455402 -7.19761e-13 8.41799)
(0.0429944 -1.09196e-12 8.49834)
(0.0402475 -1.49448e-12 8.5798)
(0.037326 -1.86291e-12 8.65862)
(0.0342634 -2.18318e-12 8.73143)
(0.0310987 -2.45128e-12 8.7954)
(0.0278737 -2.71233e-12 8.84828)
(0.0246316 -2.97266e-12 8.88844)
(0.0214146 -3.22706e-12 8.91472)
(0.0182621 -3.46063e-12 8.92644)
(0.01521 -3.77194e-12 8.92326)
(0.0122902 -3.77744e-12 8.90509)
(0.00953088 -3.87729e-12 8.87202)
(0.0069571 -3.98991e-12 8.82422)
(0.00459163 -4.14287e-12 8.76196)
(0.00245589 -3.99605e-12 8.68552)
(0.000570836 -3.8914e-12 8.59531)
(-0.00104242 -3.81218e-12 8.49184)
(-0.00236222 -3.74628e-12 8.37584)
(-0.0033669 -3.68658e-12 8.24822)
(-0.00403529 -3.62407e-12 8.11015)
(-0.00434832 -3.55392e-12 7.96296)
(-0.00429175 -3.4527e-12 7.80808)
(-0.0038597 -3.43687e-12 7.64685)
(-0.00306142 -2.90596e-12 7.48022)
(-0.00192886 -3.04901e-12 7.30825)
(-0.000534467 -3.18492e-12 7.12918)
(0.000991608 -3.38307e-12 6.93749)
(0.00242677 -3.75444e-12 6.71988)
(0.00344483 -4.55431e-12 6.44268)
(0.00367653 -3.67585e-12 6.00674)
(0.00251443 -2.63717e-12 5.02478)
(0.00235004 -1.12844e-12 4.93931)
(0.00655556 -3.35508e-12 5.88844)
(0.0117103 -3.74132e-12 6.28432)
(0.0171631 -3.70676e-12 6.51965)
(0.0226889 -2.77494e-12 6.69623)
(0.0281356 -2.4133e-12 6.84757)
(0.0334304 -2.26334e-12 6.98665)
(0.0385287 -2.17658e-12 7.11875)
(0.0433996 -2.0829e-12 7.24574)
(0.0480219 -1.93644e-12 7.36789)
(0.0523806 -1.66824e-12 7.48465)
(0.0564652 -1.1058e-12 7.59506)
(0.0602676 -1.55431e-12 7.69797)
(0.0637823 -1.64817e-12 7.79222)
(0.067005 -1.5235e-12 7.8767)
(0.0699329 -1.19002e-12 7.95044)
(0.072565 -1.83195e-12 8.01269)
(0.0749016 -2.26827e-12 8.06298)
(0.076945 -2.52649e-12 8.10117)
(0.0786994 -2.62169e-12 8.12758)
(0.08017 -2.56135e-12 8.14304)
(0.0813629 -2.36132e-12 8.14895)
(0.0822831 -2.04091e-12 8.14731)
(0.0829336 -1.625e-12 8.14081)
(0.0833135 -1.15183e-12 8.1327)
(0.083417 -6.98714e-13 8.12678)
(0.0832331 -3.82227e-14 8.12713)
(0.082747 -4.34505e-13 8.1377)
(0.0819441 -6.79284e-13 8.16177)
(0.0808133 -1.03361e-12 8.20135)
(0.0793507 -1.41442e-12 8.25682)
(0.0775594 -1.69796e-12 8.32689)
(0.0754482 -1.86787e-12 8.40893)
(0.0730307 -1.94707e-12 8.49935)
(0.0703251 -2.03565e-12 8.59406)
(0.0673553 -2.15469e-12 8.68882)
(0.0641508 -2.29782e-12 8.77954)
(0.0607465 -2.45258e-12 8.8626)
(0.0571815 -2.61048e-12 8.93498)
(0.0534967 -2.76549e-12 8.99433)
(0.0497341 -2.91311e-12 9.03898)
(0.0459346 -3.05011e-12 9.06786)
(0.0421366 -3.17428e-12 9.08038)
(0.0383755 -3.28433e-12 9.07633)
(0.0346836 -3.3802e-12 9.05576)
(0.0310903 -3.46414e-12 9.01888)
(0.0276226 -3.53869e-12 8.96596)
(0.0243054 -3.60553e-12 8.89731)
(0.0211618 -3.66469e-12 8.81324)
(0.0182138 -3.72174e-12 8.71417)
(0.0154818 -3.78084e-12 8.60064)
(0.0129846 -3.84542e-12 8.47338)
(0.0107388 -3.91883e-12 8.33343)
(0.00875765 -4.00489e-12 8.18207)
(0.00704995 -4.10949e-12 8.02088)
(0.00561921 -4.24357e-12 7.85159)
(0.00446241 -4.42995e-12 7.67596)
(0.00356963 -4.71245e-12 7.49545)
(0.00292223 -4.51513e-12 7.31081)
(0.00249398 -4.38647e-12 7.12119)
(0.00223898 -4.29721e-12 6.92247)
(0.00209721 -4.22295e-12 6.70332)
(0.00198604 -4.12819e-12 6.43421)
(0.00179503 -3.86268e-12 6.0249)
(0.00112284 -3.20624e-12 5.10937)
(0.00347234 -1.90284e-11 4.68574)
(0.00854725 -7.00954e-12 5.60295)
(0.014094 -5.78715e-12 5.98683)
(0.0196925 -4.64417e-12 6.21703)
(0.0251943 -3.86548e-12 6.39214)
(0.0305199 -3.33529e-12 6.54438)
(0.0356557 -2.95342e-12 6.6861)
(0.0406023 -2.66056e-12 6.82216)
(0.045361 -2.4263e-12 6.95419)
(0.0499324 -2.23639e-12 7.0823)
(0.0543169 -2.08521e-12 7.20583)
(0.0585145 -1.97306e-12 7.32375)
(0.062524 -1.91228e-12 7.4349)
(0.0663426 -1.88113e-12 7.53807)
(0.0699658 -1.87223e-12 7.63214)
(0.0733878 -1.88615e-12 7.71612)
(0.0766014 -1.93416e-12 7.78921)
(0.0795986 -1.9862e-12 7.85091)
(0.0823709 -2.02208e-12 7.90104)
(0.0849091 -2.02868e-12 7.93986)
(0.0872037 -1.99906e-12 7.96817)
(0.0892443 -1.93313e-12 7.98736)
(0.0910187 -1.83828e-12 7.99952)
(0.0925119 -1.73016e-12 8.00742)
(0.0937046 -1.63372e-12 8.01453)
(0.0945733 -1.58325e-12 8.02483)
(0.0950908 -1.61926e-12 8.04256)
(0.0952289 -1.77515e-12 8.07168)
(0.0949639 -2.05629e-12 8.11529)
(0.0942809 -2.45462e-12 8.17506)
(0.0931759 -2.95882e-12 8.25094)
(0.0916549 -3.55852e-12 8.34129)
(0.0897319 -4.24877e-12 8.44319)
(0.0874274 -4.15336e-12 8.55277)
(0.0847682 -4.19457e-12 8.66565)
(0.0817878 -4.34838e-12 8.77726)
(0.0785254 -4.59322e-12 8.88323)
(0.075024 -4.30299e-12 8.97969)
(0.0713298 -4.10547e-12 9.06345)
(0.0674895 -3.97901e-12 9.1321)
(0.0635492 -3.90781e-12 9.18395)
(0.0595525 -3.88059e-12 9.21799)
(0.0555399 -3.8898e-12 9.23373)
(0.0515477 -3.93052e-12 9.23109)
(0.0476083 -4.00022e-12 9.21025)
(0.0437503 -4.09876e-12 9.17153)
(0.0399991 -4.23275e-12 9.11533)
(0.0363767 -4.43342e-12 9.04205)
(0.0329021 -4.33873e-12 8.95209)
(0.0295914 -4.31441e-12 8.84596)
(0.0264581 -4.33501e-12 8.72431)
(0.0235125 -4.39932e-12 8.58802)
(0.020762 -4.51254e-12 8.43829)
(0.0182108 -4.68203e-12 8.27662)
(0.0158599 -4.91715e-12 8.10483)
(0.0137069 -5.23026e-12 7.92493)
(0.0117465 -5.63863e-12 7.73897)
(0.00997038 -6.16568e-12 7.54871)
(0.00836625 -6.84463e-12 7.35521)
(0.00691699 -7.01084e-12 7.15798)
(0.00560217 -7.33544e-12 6.95337)
(0.00438502 -7.85652e-12 6.73094)
(0.00323842 -9.23871e-12 6.46256)
(0.00216342 -8.66334e-12 6.06175)
(0.00102509 -7.61781e-12 5.16892)
(0.00352718 -7.47221e-12 4.42128)
(0.00824419 -7.14019e-12 5.32801)
(0.0130962 -8.50576e-12 5.71372)
(0.0178449 -3.45238e-12 5.94723)
(0.0224239 -1.00072e-12 6.12592)
(0.0268026 1.49867e-12 6.28173)
(0.0309988 9.48286e-13 6.42692)
(0.0350363 8.62673e-13 6.56633)
(0.0389362 1.03001e-12 6.70161)
(0.0427166 1.36797e-12 6.83292)
(0.046392 1.87088e-12 6.95969)
(0.0499726 2.57339e-12 7.08101)
(0.0534642 1.66957e-12 7.19579)
(0.0568682 9.89305e-13 7.30296)
(0.060182 4.63087e-13 7.40151)
(0.0633992 4.26513e-14 7.49053)
(0.0665098 -3.01019e-13 7.56936)
(0.0695009 -5.83415e-13 7.63755)
(0.0723568 -8.13005e-13 7.69502)
(0.0750591 -9.95282e-13 7.74209)
(0.077587 -1.13519e-12 7.77965)
(0.0799163 -1.23866e-12 7.8092)
(0.0820194 -1.31346e-12 7.83298)
(0.0838643 -1.36951e-12 7.85396)
(0.0854143 -1.41844e-12 7.87582)
(0.0866287 -1.47212e-12 7.90275)
(0.0874656 -1.53996e-12 7.93905)
(0.0878876 -1.62522e-12 7.98853)
(0.0878684 -1.72197e-12 8.05386)
(0.0873969 -1.81547e-12 8.13612)
(0.086477 -1.88419e-12 8.23469)
(0.0851254 -1.90173e-12 8.34742)
(0.0833684 -1.83868e-12 8.47097)
(0.0812405 -1.66396e-12 8.60109)
(0.0787827 -1.38518e-12 8.73302)
(0.0760406 -1.8166e-12 8.86189)
(0.0730628 -2.10547e-12 8.98309)
(0.0698992 -2.27073e-12 9.09258)
(0.0665988 -2.34647e-12 9.18713)
(0.0632085 -2.3568e-12 9.26434)
(0.0597719 -2.31877e-12 9.32264)
(0.0563289 -2.24437e-12 9.36117)
(0.0529146 -2.14322e-12 9.37963)
(0.0495587 -2.02467e-12 9.37814)
(0.0462857 -1.90354e-12 9.35708)
(0.043115 -1.67623e-12 9.31698)
(0.0400608 -1.76706e-12 9.2584)
(0.037132 -1.74411e-12 9.18192)
(0.0343326 -1.70468e-12 9.0881)
(0.0316615 -1.77625e-12 8.97759)
(0.0291132 -1.94089e-12 8.85118)
(0.026678 -2.22942e-12 8.70988)
(0.0243436 -2.51199e-12 8.55502)
(0.0220955 -2.79796e-12 8.38821)
(0.0199188 -3.09294e-12 8.21133)
(0.0178001 -3.39476e-12 8.02646)
(0.0157282 -3.67962e-12 7.83565)
(0.0136964 -4.08073e-12 7.64066)
(0.0117022 -3.90184e-12 7.44253)
(0.00974798 -3.7255e-12 7.24072)
(0.00783743 -3.30627e-12 7.03157)
(0.00598047 -3.63937e-12 6.80465)
(0.00420859 -3.69993e-12 6.53232)
(0.00258282 -3.03857e-12 6.12926)
(0.00116229 1.01853e-12 5.23918)
(0.0029766 -4.28903e-12 4.19776)
(0.00673089 -3.7516e-12 5.10748)
(0.0103849 -2.74286e-12 5.50339)
(0.0138463 -1.68693e-12 5.74555)
(0.0170928 -7.68581e-13 5.93086)
(0.0201356 -5.45198e-14 6.09156)
(0.02302 4.07553e-13 6.24015)
(0.0257932 7.42271e-13 6.38173)
(0.028495 9.92856e-13 6.5182)
(0.0311562 1.17292e-12 6.64996)
(0.0337998 1.28147e-12 6.77664)
(0.0364421 1.3045e-12 6.89755)
(0.0390927 1.21045e-12 7.01185)
(0.0417547 1.04741e-12 7.11864)
(0.0444258 8.44508e-13 7.21712)
(0.0470986 6.20743e-13 7.30659)
(0.0497607 3.89674e-13 7.38655)
(0.0523954 1.61598e-13 7.45673)
(0.0549817 -5.55615e-14 7.51722)
(0.0574942 -2.55938e-13 7.56853)
(0.059903 -4.35621e-13 7.61171)
(0.0621734 -5.92595e-13 7.64849)
(0.0642654 -7.26599e-13 7.68131)
(0.0661332 -8.38753e-13 7.7134)
(0.0677262 -9.30877e-13 7.74864)
(0.0689919 -1.00445e-12 7.7913)
(0.0698809 -1.05929e-12 7.84551)
(0.0703541 -1.0932e-12 7.9146)
(0.07039 -1.10222e-12 8.00053)
(0.0699863 -1.08311e-12 8.10357)
(0.069158 -1.03921e-12 8.22241)
(0.067934 -9.96532e-13 8.35435)
(0.0663541 -1.04324e-12 8.49558)
(0.0644667 -1.81136e-12 8.64152)
(0.0623256 -1.54404e-12 8.7872)
(0.0599875 -2.32778e-12 8.9276)
(0.057509 -2.20713e-12 9.0581)
(0.0549436 -2.2044e-12 9.17472)
(0.0523405 -2.18695e-12 9.27433)
(0.0497434 -2.16039e-12 9.35471)
(0.0471896 -2.13031e-12 9.41446)
(0.04471 -2.10272e-12 9.45292)
(0.0423282 -2.08421e-12 9.47001)
(0.0400609 -2.08199e-12 9.46609)
(0.0379177 -2.18797e-12 9.44179)
(0.0359016 -1.92989e-12 9.3979)
(0.0340094 -2.08541e-12 9.33525)
(0.0322318 -1.87902e-12 9.2547)
(0.030554 -1.84367e-12 9.15709)
(0.0289556 -1.47215e-12 9.04333)
(0.0274124 -1.44425e-12 8.91446)
(0.0258964 -1.45377e-12 8.77168)
(0.0243783 -1.48199e-12 8.61643)
(0.0228292 -1.52421e-12 8.45034)
(0.021223 -1.57803e-12 8.27523)
(0.0195384 -1.6398e-12 8.09297)
(0.0177612 -1.70348e-12 7.90535)
(0.0158851 -1.76566e-12 7.7138)
(0.0139129 -1.72428e-12 7.51895)
(0.0118517 -2.42672e-12 7.31989)
(0.00971588 -2.28397e-12 7.11255)
(0.00752185 -2.81037e-12 6.88628)
(0.00531123 -2.71176e-12 6.61308)
(0.00318785 -2.40255e-12 6.20695)
(0.00141801 -1.41252e-12 5.30695)
(0.00237707 -1.98715e-12 4.03591)
(0.00511778 -1.5605e-12 4.956)
(0.00762355 -9.62594e-13 5.36571)
(0.00988846 -4.18408e-13 5.6182)
(0.0119505 4.52924e-14 5.81073)
(0.0138522 4.28273e-13 5.97602)
(0.0156511 7.34975e-13 6.12702)
(0.0173994 9.7419e-13 6.2692)
(0.0191399 1.15184e-12 6.40479)
(0.0209073 1.27153e-12 6.53449)
(0.0227273 1.3357e-12 6.65825)
(0.0246179 1.34663e-12 6.77566)
(0.0265896 1.30772e-12 6.88615)
(0.0286464 1.22503e-12 6.98912)
(0.0307858 1.10597e-12 7.08399)
(0.033 9.58502e-13 7.17032)
(0.0352756 7.90607e-13 7.24782)
(0.0375939 6.10034e-13 7.31646)
(0.0399311 4.24023e-13 7.37656)
(0.0422581 2.39059e-13 7.42886)
(0.0445398 6.0648e-14 7.47468)
(0.0467347 -1.06876e-13 7.516)
(0.0487947 -2.60477e-13 7.55557)
(0.050665 -3.98439e-13 7.59687)
(0.0522865 -5.20323e-13 7.64395)
(0.0535996 -6.26896e-13 7.70105)
(0.0545523 -7.20065e-13 7.77194)
(0.0551086 -8.02823e-13 7.85926)
(0.0552531 -8.78513e-13 7.9641)
(0.0549908 -9.517e-13 8.08592)
(0.0543432 -1.02834e-12 8.22268)
(0.0533454 -1.11583e-12 8.37108)
(0.0520429 -1.22223e-12 8.52688)
(0.0504889 -1.35101e-12 8.68516)
(0.0487414 -1.45942e-12 8.84072)
(0.0468588 -1.55345e-12 8.9885)
(0.0448978 -1.60902e-12 9.12392)
(0.0429104 -1.6317e-12 9.24318)
(0.0409419 -1.6278e-12 9.34341)
(0.0390293 -1.60312e-12 9.42269)
(0.0372014 -1.56265e-12 9.47997)
(0.0354787 -1.5105e-12 9.51494)
(0.0338727 -1.44984e-12 9.52789)
(0.0323872 -1.38285e-12 9.51954)
(0.0310187 -1.31067e-12 9.49085)
(0.0297576 -1.23321e-12 9.4429)
(0.0285893 -1.15605e-12 9.3768)
(0.0274945 -1.07553e-12 9.29362)
(0.0264501 -9.95302e-13 9.19441)
(0.0254302 -9.18644e-13 9.08026)
(0.0244065 -8.55101e-13 8.9523)
(0.0233495 -8.05714e-13 8.81179)
(0.0222301 -7.7143e-13 8.66013)
(0.0210212 -7.53419e-13 8.49885)
(0.0196993 -7.52956e-13 8.32955)
(0.0182461 -7.71334e-13 8.15382)
(0.0166506 -8.0992e-13 7.97309)
(0.0149104 -8.70525e-13 7.78837)
(0.0130324 -9.56413e-13 7.59983)
(0.011034 -1.07244e-12 7.40606)
(0.00894121 -1.19659e-12 7.20252)
(0.00679534 -1.34017e-12 6.97787)
(0.00467724 -1.45326e-12 6.70339)
(0.00271725 -1.49419e-12 6.29159)
(0.00117064 -1.30574e-12 5.3791)
(0.00185122 -8.56484e-13 3.91722)
(0.00383911 -6.39882e-13 4.85059)
(0.0055431 -3.83836e-13 5.27423)
(0.00700916 -1.92792e-13 5.5365)
(0.00829018 -7.7689e-14 5.73521)
(0.00944443 -4.60379e-14 5.90383)
(0.0105346 -1.08641e-13 6.05582)
(0.0116157 -2.82267e-13 6.19709)
(0.0127321 -5.86566e-13 6.3302)
(0.0139175 -1.03953e-12 6.45621)
(0.0151971 -1.6313e-12 6.57536)
(0.0165882 -2.25494e-12 6.68754)
(0.0181015 -1.54155e-12 6.79245)
(0.0197413 -8.94013e-13 6.88973)
(0.021506 -4.03807e-13 6.97907)
(0.0233886 -6.39158e-14 7.06025)
(0.025377 1.58145e-13 7.13323)
(0.0274537 2.96631e-13 7.1982)
(0.0295956 3.82153e-13 7.25574)
(0.0317733 4.42347e-13 7.30685)
(0.0339508 5.04249e-13 7.35315)
(0.0360846 5.9448e-13 7.39695)
(0.0381236 7.42716e-13 7.44129)
(0.0400098 9.80692e-13 7.48992)
(0.0416811 1.33666e-12 7.54699)
(0.0430779 1.8097e-12 7.61658)
(0.0441519 2.29945e-12 7.70194)
(0.044873 1.58879e-12 7.80495)
(0.045232 9.36268e-13 7.92586)
(0.0452381 4.22868e-13 8.06336)
(0.0449147 4.00894e-14 8.21478)
(0.044297 -2.349e-13 8.37634)
(0.0434285 -4.167e-13 8.54341)
(0.0423583 -5.04491e-13 8.71086)
(0.0411374 -4.87604e-13 8.87339)
(0.0398159 -1.49146e-12 9.02595)
(0.0384404 -1.36956e-12 9.1641)
(0.0370513 -1.23949e-12 9.2843)
(0.035682 -1.09962e-12 9.38397)
(0.034358 -9.47373e-13 9.46154)
(0.033097 -7.81245e-13 9.51628)
(0.0319093 -6.00312e-13 9.54823)
(0.0307981 -4.03532e-13 9.55797)
(0.0297606 -1.87935e-13 9.5465)
(0.0287891 5.71443e-14 9.51501)
(0.0278721 2.78678e-13 9.46476)
(0.0269948 1.78989e-13 9.39702)
(0.0261403 5.13483e-13 9.31298)
(0.0252897 8.31134e-13 9.21381)
(0.0244225 1.11281e-12 9.10065)
(0.0235175 1.12435e-12 8.97471)
(0.0225533 1.09456e-12 8.83725)
(0.0215091 1.10612e-12 8.68964)
(0.0203659 1.16074e-12 8.53332)
(0.0191079 1.26526e-12 8.36974)
(0.017723 1.43321e-12 8.20031)
(0.0162043 1.68864e-12 8.02619)
(0.0145509 2.06851e-12 7.84811)
(0.0127682 1.85773e-12 7.66592)
(0.0108656 1.73535e-12 7.47789)
(0.00885991 1.66846e-12 7.2791)
(0.00677528 1.06599e-12 7.05785)
(0.00467164 1.35573e-12 6.7847)
(0.00267142 2.38868e-12 6.37048)
(0.00106651 6.48528e-12 5.44484)
(0.00141785 -3.94746e-13 3.8347)
(0.00273359 -3.23457e-13 4.78171)
(0.00373515 -2.46881e-13 5.21842)
(0.00450366 -2.091e-13 5.48937)
(0.00512187 -2.12022e-13 5.69317)
(0.0056555 -2.54502e-13 5.86409)
(0.00616377 -3.34933e-13 6.01613)
(0.00669524 -4.5025e-13 6.15563)
(0.00728871 -5.9425e-13 6.28553)
(0.00797468 -7.54593e-13 6.40717)
(0.00877595 -9.08396e-13 6.52109)
(0.00970855 -1.01779e-12 6.62742)
(0.0107826 -1.03481e-12 6.72609)
(0.0120029 -1.02735e-12 6.81698)
(0.0133695 -1.05134e-12 6.89997)
(0.0148777 -1.15091e-12 6.97506)
(0.0165183 -1.36364e-12 7.04241)
(0.0182766 -1.72613e-12 7.10247)
(0.0201326 -2.25214e-12 7.15604)
(0.0220598 -3.38196e-12 7.20445)
(0.0240242 -1.97326e-12 7.24961)
(0.0259837 -1.13161e-12 7.29417)
(0.0278879 -4.27161e-13 7.34151)
(0.0296793 1.4094e-13 7.39561)
(0.0312979 5.85346e-13 7.46068)
(0.0326877 8.99968e-13 7.54051)
(0.0338068 1.05332e-12 7.63779)
(0.0346326 1.00462e-12 7.75364)
(0.0351614 8.56586e-13 7.88753)
(0.0354047 6.82786e-13 8.03751)
(0.0353855 5.26086e-13 8.20043)
(0.0351352 4.09679e-13 8.37217)
(0.0346908 3.46362e-13 8.54786)
(0.0340921 3.42463e-13 8.72225)
(0.033379 3.99469e-13 8.89003)
(0.032589 5.14645e-13 9.04626)
(0.0317559 7.55199e-13 9.18667)
(0.0309085 9.94078e-13 9.30794)
(0.0300696 8.05501e-13 9.40777)
(0.029256 6.33365e-13 9.48482)
(0.0284785 5.60108e-13 9.53866)
(0.0277426 5.53184e-13 9.56954)
(0.0270484 5.95076e-13 9.57826)
(0.0263915 6.74009e-13 9.56597)
(0.025764 7.81446e-13 9.534)
(0.0251549 9.11353e-13 9.48373)
(0.0245509 1.05886e-12 9.41648)
(0.0239369 1.23475e-12 9.33352)
(0.0232961 1.439e-12 9.23605)
(0.0226109 1.67217e-12 9.12527)
(0.0218631 1.84572e-12 9.00236)
(0.0210348 1.72073e-12 8.86858)
(0.0201089 1.53389e-12 8.72526)
(0.0190704 1.36431e-12 8.57375)
(0.017907 1.2027e-12 8.4154)
(0.0166103 1.04093e-12 8.25143)
(0.0151768 8.68746e-13 8.08285)
(0.0136087 1.02157e-12 7.91015)
(0.0119141 1.15894e-12 7.73294)
(0.010107 1.28664e-12 7.5492)
(0.00820769 1.40689e-12 7.35367)
(0.00624553 1.5245e-12 7.13419)
(0.0042846 1.73359e-12 6.86063)
(0.00244008 2.14645e-12 6.44222)
(0.000981435 3.01143e-12 5.50444)
(0.00096576 -3.03282e-13 3.77947)
(0.00181686 -3.5537e-13 4.74004)
(0.00238525 -4.0599e-13 5.18894)
(0.00275943 -4.78815e-13 5.46785)
(0.00300796 -5.77771e-13 5.67614)
(0.00319241 -7.04527e-13 5.84886)
(0.00336704 -8.60685e-13 6.00061)
(0.00357673 -1.04807e-12 6.13816)
(0.0038569 -1.26873e-12 6.26479)
(0.00423436 -1.5251e-12 6.38211)
(0.00472907 -1.82292e-12 6.49092)
(0.0053555 -2.17326e-12 6.59155)
(0.00612344 -2.60316e-12 6.68411)
(0.00703861 -3.17295e-12 6.76866)
(0.00810299 -4.01085e-12 6.84524)
(0.00931491 -5.40537e-12 6.91403)
(0.0106688 -4.13265e-12 6.97537)
(0.0121545 -3.4013e-12 7.02992)
(0.0137571 -2.90892e-12 7.07873)
(0.015455 -2.47694e-12 7.1234)
(0.0172197 -1.95669e-12 7.16617)
(0.0190149 -1.40523e-12 7.21001)
(0.020796 -8.79001e-13 7.25861)
(0.0225117 -4.21067e-13 7.31617)
(0.0241084 -6.48692e-14 7.38687)
(0.0255372 1.6351e-13 7.47421)
(0.0267617 2.48067e-13 7.58029)
(0.0277621 1.88897e-13 7.70554)
(0.0285328 6.67853e-15 7.84886)
(0.0290798 -2.70859e-13 8.00779)
(0.0294173 -6.14209e-13 8.17884)
(0.0295661 -9.9049e-13 8.35766)
(0.0295518 -1.64439e-12 8.53927)
(0.0294026 -9.36843e-13 8.71837)
(0.0291478 -5.59075e-13 8.88969)
(0.0288166 -2.39933e-13 9.04835)
(0.0284362 1.73557e-14 9.19022)
(0.0280306 2.10866e-13 9.31215)
(0.0276194 3.34802e-13 9.412)
(0.0272167 4.20031e-13 9.48863)
(0.0268304 4.83917e-13 9.54175)
(0.0264625 5.36603e-13 9.57181)
(0.0261092 5.83504e-13 9.57976)
(0.0257622 6.26909e-13 9.5669)
(0.0254091 6.67141e-13 9.53468)
(0.0250352 7.0332e-13 9.48459)