/*---------------------------------------------------------------------------*\ 
| =========                 |                                                 | 
| \      /  F ield         | OpenFOAM: The Open Source CFD Toolbox           | 
|  \    /   O peration     | Version:  1.6                                   | 
|   \  /    A nd           | Web:      http://www.openfoam.org               | 
|    \/     M anipulation  |                                                 | 
\*---------------------------------------------------------------------------*/ 

FoamFile 
{    version         2.0; 
	format          ascii; 

    class           scalarAverageField; 
    object          values;
}
 // * * * * * * * * * * * * * * * * * * * * * * * * * * * * * * * * * * * * * // 


9394.94644554
201
(
		 846.432
		 847.518
		 848.605
		 849.691
		 850.777
		 851.864
		 862.14
		 867.77
		 875.595
		 883.421
		 891.246
		 902.453
		 913.659
		 924.866
		 938.44
		 953.197
		 967.955
		 983.972
		 1002.51
		 1021.05
		 1039.59
		 1062.2
		 1084.8
		 1107.41
		 1132.96
		 1159.99
		 1187.02
		 1215.65
		 1247.5
		 1279.36
		 1311.21
		 1348.39
		 1385.56
		 1422.74
		 1463.85
		 1506.94
		 1550.03
		 1595.33
		 1645.04
		 1694.75
		 1744.46
		 1801.68
		 1858.9
		 1916.11
		 1979.06
		 2044.88
		 2110.7
		 2179.85
		 2255.68
		 2331.5
		 2407.32
		 2494.95
		 2582.59
		 2670.23
		 2767.34
		 2869.19
		 2971.04
		 3078.71
		 3198.02
		 3317.32
		 3436.63
		 3577.86
		 3719.1
		 3860.33
		 4020.43
		 4189.96
		 4359.49
		 4541.57
		 4748.74
		 4955.91
		 5163.08
		 5422.18
		 5681.27
		 5940.37
		 6249.39
		 6583.37
		 6917.36
		 7289.41
		 7737.62
		 8185.83
		 8634.04
		 9269.79
		 9905.55
		 10541.3
		 11404.4
		 12381.2
		 13357.9
		 14575.1
		 16273.0
		 17970.9
		 19668.8
		 23317.9
		 26966.9
		 30616.0
		 40147.8
		 52620.9
		 65094.0
		 76719.6
		 86650.1
		 96580.5
		 106511.0
		 847.518
		 848.605
		 849.691
		 850.777
		 851.864
		 862.14
		 867.77
		 875.595
		 883.421
		 891.246
		 902.453
		 913.659
		 924.866
		 938.44
		 953.197
		 967.955
		 983.972
		 1002.51
		 1021.05
		 1039.59
		 1062.2
		 1084.8
		 1107.41
		 1132.96
		 1159.99
		 1187.02
		 1215.65
		 1247.5
		 1279.36
		 1311.21
		 1348.39
		 1385.56
		 1422.74
		 1463.85
		 1506.94
		 1550.03
		 1595.33
		 1645.04
		 1694.75
		 1744.46
		 1801.68
		 1858.9
		 1916.11
		 1979.06
		 2044.88
		 2110.7
		 2179.85
		 2255.68
		 2331.5
		 2407.32
		 2494.95
		 2582.59
		 2670.23
		 2767.34
		 2869.19
		 2971.04
		 3078.71
		 3198.02
		 3317.32
		 3436.63
		 3577.86
		 3719.1
		 3860.33
		 4020.43
		 4189.96
		 4359.49
		 4541.57
		 4748.74
		 4955.91
		 5163.08
		 5422.18
		 5681.27
		 5940.37
		 6249.39
		 6583.37
		 6917.36
		 7289.41
		 7737.62
		 8185.83
		 8634.04
		 9269.79
		 9905.55
		 10541.3
		 11404.4
		 12381.2
		 13357.9
		 14575.1
		 16273.0
		 17970.9
		 19668.8
		 23317.9
		 26966.9
		 30616.0
		 40147.8
		 52620.9
		 65094.0
		 76719.6
		 86650.1
		 96580.5
		 106511.0
)