/*---------------------------------------------------------------------------*\ 
| =========                 |                                                 | 
| \      /  F ield         | OpenFOAM: The Open Source CFD Toolbox           | 
|  \    /   O peration     | Version:  1.6                                   | 
|   \  /    A nd           | Web:      http://www.openfoam.org               | 
|    \/     M anipulation  |                                                 | 
\*---------------------------------------------------------------------------*/ 

FoamFile 
{    version         2.0; 
	format          ascii; 

    class           scalarAverageField; 
    object          values;
}
 // * * * * * * * * * * * * * * * * * * * * * * * * * * * * * * * * * * * * * // 


4.58592940594
201
(
		 2.79089
		 2.79233
		 2.79377
		 2.79521
		 2.79665
		 2.79809
		 2.81161
		 2.81898
		 2.82917
		 2.83935
		 2.84954
		 2.86387
		 2.87821
		 2.89254
		 2.90962
		 2.92806
		 2.9465
		 2.9663
		 2.9888
		 3.0113
		 3.0338
		 3.06029
		 3.08678
		 3.11327
		 3.14236
		 3.17276
		 3.20315
		 3.23481
		 3.26899
		 3.30317
		 3.33734
		 3.37516
		 3.41298
		 3.4508
		 3.49094
		 3.53224
		 3.57353
		 3.61592
		 3.6605
		 3.70509
		 3.74967
		 3.79733
		 3.845
		 3.89267
		 3.94225
		 3.99279
		 4.04333
		 4.09476
		 4.14796
		 4.20116
		 4.25436
		 4.31001
		 4.36566
		 4.42131
		 4.47846
		 4.53636
		 4.59426
		 4.65285
		 4.7128
		 4.77276
		 4.83272
		 4.89456
		 4.9564
		 5.01824
		 5.08123
		 5.1448
		 5.20837
		 5.27246
		 5.33763
		 5.40279
		 5.46795
		 5.53458
		 5.60122
		 5.66786
		 5.73543
		 5.80346
		 5.87149
		 5.93997
		 6.00935
		 6.07872
		 6.1481
		 6.2188
		 6.2895
		 6.36021
		 6.43181
		 6.50386
		 6.57592
		 6.64839
		 6.72169
		 6.79499
		 6.86829
		 6.94158
		 7.01487
		 7.08815
		 7.19858
		 7.32758
		 7.45658
		 7.57349
		 7.66622
		 7.75894
		 7.85167
		 2.79233
		 2.79377
		 2.79521
		 2.79665
		 2.79809
		 2.81161
		 2.81898
		 2.82917
		 2.83935
		 2.84954
		 2.86387
		 2.87821
		 2.89254
		 2.90962
		 2.92806
		 2.9465
		 2.9663
		 2.9888
		 3.0113
		 3.0338
		 3.06029
		 3.08678
		 3.11327
		 3.14236
		 3.17276
		 3.20315
		 3.23481
		 3.26899
		 3.30317
		 3.33734
		 3.37516
		 3.41298
		 3.4508
		 3.49094
		 3.53224
		 3.57353
		 3.61592
		 3.6605
		 3.70509
		 3.74967
		 3.79733
		 3.845
		 3.89267
		 3.94225
		 3.99279
		 4.04333
		 4.09476
		 4.14796
		 4.20116
		 4.25436
		 4.31001
		 4.36566
		 4.42131
		 4.47846
		 4.53636
		 4.59426
		 4.65285
		 4.7128
		 4.77276
		 4.83272
		 4.89456
		 4.9564
		 5.01824
		 5.08123
		 5.1448
		 5.20837
		 5.27246
		 5.33763
		 5.40279
		 5.46795
		 5.53458
		 5.60122
		 5.66786
		 5.73543
		 5.80346
		 5.87149
		 5.93997
		 6.00935
		 6.07872
		 6.1481
		 6.2188
		 6.2895
		 6.36021
		 6.43181
		 6.50386
		 6.57592
		 6.64839
		 6.72169
		 6.79499
		 6.86829
		 6.94158
		 7.01487
		 7.08815
		 7.19858
		 7.32758
		 7.45658
		 7.57349
		 7.66622
		 7.75894
		 7.85167
)