/*---------------------------------------------------------------------------*\ 
| =========                 |                                                 | 
| \      /  F ield         | OpenFOAM: The Open Source CFD Toolbox           | 
|  \    /   O peration     | Version:  1.6                                   | 
|   \  /    A nd           | Web:      http://www.openfoam.org               | 
|    \/     M anipulation  |                                                 | 
\*---------------------------------------------------------------------------*/ 

FoamFile 
{    version         2.0; 
	format          ascii; 

    class           vectorAverageField; 
    object          values;
}
 // * * * * * * * * * * * * * * * * * * * * * * * * * * * * * * * * * * * * * // 


(27.2341279231 0 0)
201
(
		 (31.0 0.0 0.0)
		 (30.998320989 0.0 0.0)
		 (30.9965370398 0.0 0.0)
		 (30.9948580288 0.0 0.0)
		 (30.9931790178 0.0 0.0)
		 (30.9913950686 0.0 0.0)
		 (30.9752345876 0.0 0.0)
		 (30.9664197798 0.0 0.0)
		 (30.95424695 0.0 0.0)
		 (30.941969182 0.0 0.0)
		 (30.929691414 0.0 0.0)
		 (30.912376613 0.0 0.0)
		 (30.8949568738 0.0 0.0)
		 (30.8776420728 0.0 0.0)
		 (30.8567593733 0.0 0.0)
		 (30.8341976629 0.0 0.0)
		 (30.8116359525 0.0 0.0)
		 (30.7871853547 0.0 0.0)
		 (30.7592717967 0.0 0.0)
		 (30.7313582387 0.0 0.0)
		 (30.7034446806 0.0 0.0)
		 (30.6699693987 0.0 0.0)
		 (30.6365990549 0.0 0.0)
		 (30.6031237729 0.0 0.0)
		 (30.5658707162 0.0 0.0)
		 (30.5268337102 0.0 0.0)
		 (30.4876917661 0.0 0.0)
		 (30.4466609346 0.0 0.0)
		 (30.4016424519 0.0 0.0)
		 (30.3567289074 0.0 0.0)
		 (30.3117104248 0.0 0.0)
		 (30.2607104654 0.0 0.0)
		 (30.2096055678 0.0 0.0)
		 (30.1585006703 0.0 0.0)
		 (30.1031982452 0.0 0.0)
		 (30.0457970563 0.0 0.0)
		 (29.9883958675 0.0 0.0)
		 (29.9287909767 0.0 0.0)
		 (29.8646737438 0.0 0.0)
		 (29.8006614491 0.0 0.0)
		 (29.7366491544 0.0 0.0)
		 (29.6656060011 0.0 0.0)
		 (29.5945628478 0.0 0.0)
		 (29.5235196945 0.0 0.0)
		 (29.4476493846 0.0 0.0)
		 (29.3691556199 0.0 0.0)
		 (29.2907667935 0.0 0.0)
		 (29.2097545123 0.0 0.0)
		 (29.1233903836 0.0 0.0)
		 (29.037131193 0.0 0.0)
		 (28.9507670643 0.0 0.0)
		 (28.8559029423 0.0 0.0)
		 (28.7611437585 0.0 0.0)
		 (28.6662796366 0.0 0.0)
		 (28.5652241615 0.0 0.0)
		 (28.461125479 0.0 0.0)
		 (28.3570267965 0.0 0.0)
		 (28.2494651538 0.0 0.0)
		 (28.1349775906 0.0 0.0)
		 (28.0204900275 0.0 0.0)
		 (27.9061074025 0.0 0.0)
		 (27.7799717005 0.0 0.0)
		 (27.6539409367 0.0 0.0)
		 (27.5279101729 0.0 0.0)
		 (27.3928547249 0.0 0.0)
		 (27.2534968112 0.0 0.0)
		 (27.1140339594 0.0 0.0)
		 (26.9694291363 0.0 0.0)
		 (26.8143304944 0.0 0.0)
		 (26.6593367907 0.0 0.0)
		 (26.5042381488 0.0 0.0)
		 (26.3303555712 0.0 0.0)
		 (26.1564729936 0.0 0.0)
		 (25.9825904161 0.0 0.0)
		 (25.7930720485 0.0 0.0)
		 (25.5958931932 0.0 0.0)
		 (25.3986093998 0.0 0.0)
		 (25.1913564784 0.0 0.0)
		 (24.963955425 0.0 0.0)
		 (24.7366593097 0.0 0.0)
		 (24.5092582563 0.0 0.0)
		 (24.2412461241 0.0 0.0)
		 (23.9731290537 0.0 0.0)
		 (23.7051169215 0.0 0.0)
		 (23.3978579069 0.0 0.0)
		 (23.0710803894 0.0 0.0)
		 (22.7443028719 0.0 0.0)
		 (22.386568589 0.0 0.0)
		 (21.9669207751 0.0 0.0)
		 (21.5472729612 0.0 0.0)
		 (21.1276251473 0.0 0.0)
		 (20.5387120361 0.0 0.0)
		 (19.9497989249 0.0 0.0)
		 (19.3609907519 0.0 0.0)
		 (18.5236889497 0.0 0.0)
		 (17.5623502092 0.0 0.0)
		 (16.6009065305 0.0 0.0)
		 (15.440814862 0.0 0.0)
		 (13.883112399 0.0 0.0)
		 (12.325409936 0.0 0.0)
		 (10.767707473 0.0 0.0)
		 (30.998320989 0.0 0.0)
		 (30.9965370398 0.0 0.0)
		 (30.9948580288 0.0 0.0)
		 (30.9931790178 0.0 0.0)
		 (30.9913950686 0.0 0.0)
		 (30.9752345876 0.0 0.0)
		 (30.9664197798 0.0 0.0)
		 (30.95424695 0.0 0.0)
		 (30.941969182 0.0 0.0)
		 (30.929691414 0.0 0.0)
		 (30.912376613 0.0 0.0)
		 (30.8949568738 0.0 0.0)
		 (30.8776420728 0.0 0.0)
		 (30.8567593733 0.0 0.0)
		 (30.8341976629 0.0 0.0)
		 (30.8116359525 0.0 0.0)
		 (30.7871853547 0.0 0.0)
		 (30.7592717967 0.0 0.0)
		 (30.7313582387 0.0 0.0)
		 (30.7034446806 0.0 0.0)
		 (30.6699693987 0.0 0.0)
		 (30.6365990549 0.0 0.0)
		 (30.6031237729 0.0 0.0)
		 (30.5658707162 0.0 0.0)
		 (30.5268337102 0.0 0.0)
		 (30.4876917661 0.0 0.0)
		 (30.4466609346 0.0 0.0)
		 (30.4016424519 0.0 0.0)
		 (30.3567289074 0.0 0.0)
		 (30.3117104248 0.0 0.0)
		 (30.2607104654 0.0 0.0)
		 (30.2096055678 0.0 0.0)
		 (30.1585006703 0.0 0.0)
		 (30.1031982452 0.0 0.0)
		 (30.0457970563 0.0 0.0)
		 (29.9883958675 0.0 0.0)
		 (29.9287909767 0.0 0.0)
		 (29.8646737438 0.0 0.0)
		 (29.8006614491 0.0 0.0)
		 (29.7366491544 0.0 0.0)
		 (29.6656060011 0.0 0.0)
		 (29.5945628478 0.0 0.0)
		 (29.5235196945 0.0 0.0)
		 (29.4476493846 0.0 0.0)
		 (29.3691556199 0.0 0.0)
		 (29.2907667935 0.0 0.0)
		 (29.2097545123 0.0 0.0)
		 (29.1233903836 0.0 0.0)
		 (29.037131193 0.0 0.0)
		 (28.9507670643 0.0 0.0)
		 (28.8559029423 0.0 0.0)
		 (28.7611437585 0.0 0.0)
		 (28.6662796366 0.0 0.0)
		 (28.5652241615 0.0 0.0)
		 (28.461125479 0.0 0.0)
		 (28.3570267965 0.0 0.0)
		 (28.2494651538 0.0 0.0)
		 (28.1349775906 0.0 0.0)
		 (28.0204900275 0.0 0.0)
		 (27.9061074025 0.0 0.0)
		 (27.7799717005 0.0 0.0)
		 (27.6539409367 0.0 0.0)
		 (27.5279101729 0.0 0.0)
		 (27.3928547249 0.0 0.0)
		 (27.2534968112 0.0 0.0)
		 (27.1140339594 0.0 0.0)
		 (26.9694291363 0.0 0.0)
		 (26.8143304944 0.0 0.0)
		 (26.6593367907 0.0 0.0)
		 (26.5042381488 0.0 0.0)
		 (26.3303555712 0.0 0.0)
		 (26.1564729936 0.0 0.0)
		 (25.9825904161 0.0 0.0)
		 (25.7930720485 0.0 0.0)
		 (25.5958931932 0.0 0.0)
		 (25.3986093998 0.0 0.0)
		 (25.1913564784 0.0 0.0)
		 (24.963955425 0.0 0.0)
		 (24.7366593097 0.0 0.0)
		 (24.5092582563 0.0 0.0)
		 (24.2412461241 0.0 0.0)
		 (23.9731290537 0.0 0.0)
		 (23.7051169215 0.0 0.0)
		 (23.3978579069 0.0 0.0)
		 (23.0710803894 0.0 0.0)
		 (22.7443028719 0.0 0.0)
		 (22.386568589 0.0 0.0)
		 (21.9669207751 0.0 0.0)
		 (21.5472729612 0.0 0.0)
		 (21.1276251473 0.0 0.0)
		 (20.5387120361 0.0 0.0)
		 (19.9497989249 0.0 0.0)
		 (19.3609907519 0.0 0.0)
		 (18.5236889497 0.0 0.0)
		 (17.5623502092 0.0 0.0)
		 (16.6009065305 0.0 0.0)
		 (15.440814862 0.0 0.0)
		 (13.883112399 0.0 0.0)
		 (12.325409936 0.0 0.0)
		 (10.767707473 0.0 0.0)
)