/*--------------------------------*- C++ -*----------------------------------*\
| =========                 |                                                 |
| \\      /  F ield         | OpenFOAM: The Open Source CFD Toolbox           |
|  \\    /   O peration     | Version:  1.7.0                                 |
|   \\  /    A nd           | Web:      www.OpenFOAM.com                      |
|    \\/     M anipulation  |                                                 |
\*---------------------------------------------------------------------------*/
FoamFile
{
    version     2.0;
    format      ascii;
    class       scalarField;
    location    "0.33/lagrangian/defaultCloud";
    object      d;
}
// * * * * * * * * * * * * * * * * * * * * * * * * * * * * * * * * * * * * * //


29889
(
4.7425e-06
2.49708e-05
5.15095e-06
6.62214e-06
1.99815e-05
2.08606e-05
1.57473e-05
5.34738e-06
2.20538e-05
2.29738e-05
3.56128e-06
3.07177e-05
2.22e-05
1.46708e-05
1.53942e-05
1.68632e-05
2.01701e-05
2.29821e-05
2.04601e-05
2.32237e-05
2.20801e-05
2.20806e-05
1.47339e-05
2.93013e-05
1.4879e-05
6.10282e-06
1.41409e-05
1.57936e-05
2.3002e-05
1.66149e-05
9.68057e-06
3.27479e-05
4.26108e-06
1.80454e-05
1.438e-05
1.32528e-05
1.80368e-05
1.36687e-05
1.49451e-05
1.92811e-05
3.21186e-05
9.24739e-06
1.92339e-05
1.44023e-05
1.46193e-05
1.74656e-05
1.09141e-05
3.04682e-05
1.14077e-05
3.05672e-05
9.87314e-06
1.73971e-05
1.07924e-05
1.31973e-05
1.81859e-05
2.47078e-05
2.37202e-05
6.42553e-06
2.14826e-05
1.69524e-05
2.02526e-05
2.79274e-05
2.2375e-05
7.15849e-06
3.15641e-05
2.09005e-05
2.83611e-05
1.51985e-05
1.5805e-05
9.03757e-06
1.40276e-05
2.1343e-05
1.23378e-05
1.00326e-05
1.01011e-05
2.3285e-05
2.49608e-05
1.51298e-05
2.48294e-05
5.41572e-06
2.3166e-05
2.36211e-05
2.85641e-05
2.5555e-05
1.58057e-05
2.87931e-05
1.17148e-05
2.24073e-05
2.39105e-05
2.16445e-05
2.14695e-05
2.65596e-05
2.41513e-05
1.5056e-05
6.62583e-06
5.63891e-06
2.60353e-05
1.25525e-05
1.2228e-05
1.6198e-05
3.08145e-05
1.60664e-05
1.53554e-05
2.17167e-05
1.23952e-05
1.20844e-05
2.2997e-05
2.12814e-05
1.93377e-05
3.52859e-05
1.13482e-05
1.76786e-05
1.54703e-05
7.97359e-06
1.07545e-05
1.50718e-05
1.34672e-05
2.45649e-05
2.00362e-05
1.9809e-05
2.04604e-05
1.68895e-05
2.07022e-05
1.62771e-05
6.38856e-06
6.33725e-06
1.81463e-05
2.18179e-05
2.14316e-05
2.67381e-05
2.25869e-05
2.76956e-05
2.27864e-05
1.95689e-05
2.05214e-05
1.83459e-05
7.31954e-06
6.72548e-06
1.31525e-05
8.647e-06
9.28348e-06
1.03685e-05
9.5178e-06
1.74423e-05
1.46636e-05
2.15455e-05
2.05295e-05
7.3573e-06
1.53697e-05
1.234e-05
3.85921e-06
1.62273e-05
2.4392e-05
1.92729e-05
7.01803e-06
2.99983e-05
1.46568e-05
2.81553e-05
1.18669e-05
1.44754e-05
1.30566e-05
1.49075e-05
1.70419e-05
2.79136e-05
2.46669e-05
1.15077e-05
1.19211e-05
1.95179e-05
2.19919e-05
2.57227e-05
2.79456e-05
1.58993e-05
1.73186e-05
1.14304e-05
1.19976e-05
2.42456e-05
1.24915e-05
1.17537e-05
2.65449e-05
1.40405e-05
7.45771e-06
1.38047e-05
1.75447e-05
2.54663e-05
2.00764e-05
1.72416e-05
3.80595e-06
3.06997e-05
1.78821e-05
3.02016e-05
1.35267e-05
2.73424e-05
9.06086e-06
2.85075e-05
1.66532e-05
9.78808e-06
6.82553e-06
9.73604e-06
2.56617e-05
6.72378e-06
1.37804e-05
1.75375e-05
1.6792e-05
1.13405e-05
3.1993e-05
1.15595e-05
1.13473e-05
2.62486e-05
2.5273e-05
1.10268e-05
2.33659e-05
1.80972e-05
1.78409e-05
1.58097e-05
2.07454e-05
1.62425e-05
1.39899e-05
1.74282e-05
1.43277e-05
1.7524e-05
3.32077e-05
2.10816e-05
1.5394e-05
2.62561e-05
1.73588e-05
9.44367e-06
2.99625e-05
6.05715e-06
2.41217e-05
1.68263e-05
2.58382e-05
1.72065e-05
2.17168e-05
1.23228e-05
2.53409e-05
2.24137e-05
1.23576e-05
2.57166e-05
2.08252e-05
1.48654e-05
2.57419e-05
1.87833e-05
1.74123e-05
2.41769e-05
9.14355e-06
2.03686e-05
6.75367e-06
4.4644e-06
1.68009e-05
8.07471e-06
1.42614e-05
1.63144e-05
2.55768e-05
1.2479e-05
1.64703e-05
3.46867e-05
1.86862e-05
1.42043e-05
1.12305e-05
2.30352e-05
1.80717e-05
3.01217e-05
1.13974e-05
1.93881e-06
1.33737e-05
1.54805e-05
1.60855e-05
1.02159e-05
3.47197e-05
2.46841e-05
2.39786e-05
2.78706e-05
1.07286e-05
1.78335e-05
1.89717e-05
3.39453e-05
1.96703e-05
1.03055e-05
2.37831e-05
1.72108e-05
2.2686e-05
2.10797e-05
1.52165e-05
1.1911e-05
1.32597e-05
1.66227e-05
8.05836e-06
1.42695e-05
2.35964e-05
2.25392e-05
2.18339e-05
2.35833e-05
1.91989e-05
5.12229e-06
2.82377e-05
2.43483e-05
1.58481e-05
1.77659e-05
1.19271e-05
2.69223e-05
2.02035e-05
1.3968e-05
1.31456e-05
2.15626e-05
2.78917e-05
1.61979e-05
2.79287e-05
6.44821e-06
2.07198e-05
1.98691e-05
1.38976e-05
1.02662e-05
2.66273e-05
2.83994e-05
1.24585e-05
1.77761e-05
8.42359e-06
2.02697e-05
4.10249e-06
6.43779e-06
1.82672e-05
5.65547e-06
1.24169e-05
1.61743e-05
1.50184e-05
2.80444e-05
6.35987e-06
1.55102e-05
6.21718e-06
3.21087e-05
3.77657e-06
1.34886e-05
2.1261e-05
1.81457e-05
2.13144e-05
2.3766e-05
1.2648e-05
1.40436e-05
8.95792e-06
2.22793e-05
1.56472e-05
2.0682e-05
2.41476e-05
1.19036e-05
1.31922e-05
1.44118e-05
1.72358e-05
9.46544e-06
2.43269e-05
1.57901e-05
2.932e-05
7.77814e-06
3.35646e-05
9.97291e-06
2.02209e-05
1.37283e-05
1.76204e-05
2.04291e-05
2.06167e-05
1.68485e-05
1.82483e-05
1.55063e-05
2.17851e-05
2.44021e-05
2.61865e-05
9.05519e-06
2.03641e-05
2.34661e-05
1.02603e-05
9.72302e-06
7.929e-06
6.04457e-06
1.39378e-05
1.63608e-05
1.84216e-05
1.41687e-05
1.28044e-05
2.80815e-05
5.19568e-06
1.63992e-05
1.92515e-05
2.26123e-05
9.95857e-06
1.86339e-05
1.35106e-05
8.95171e-06
7.52046e-06
4.45759e-06
1.09131e-05
2.13289e-05
1.60912e-05
3.91023e-05
1.94519e-05
1.94517e-05
2.12643e-05
1.02768e-05
8.17801e-06
1.68966e-05
1.97822e-05
9.47303e-06
5.61514e-06
1.27905e-05
1.96092e-05
9.62124e-06
1.15999e-05
1.99996e-05
1.91826e-06
2.82127e-05
7.91178e-06
1.26086e-05
2.30032e-05
1.11287e-05
2.11416e-05
2.27459e-05
2.27286e-05
2.38799e-05
1.44446e-05
1.95851e-06
2.44021e-05
1.41128e-05
1.41276e-05
1.16574e-05
1.94029e-05
2.14968e-05
2.22669e-05
2.53625e-05
1.98674e-05
7.86281e-06
2.0488e-05
2.76349e-05
1.03996e-05
1.64372e-05
1.44181e-05
1.42697e-05
2.64381e-05
1.66367e-05
2.18256e-05
1.74741e-05
2.03818e-05
1.75461e-05
2.86524e-05
2.29079e-05
2.18664e-05
1.73589e-05
1.93954e-05
1.64049e-05
1.5592e-05
6.316e-06
2.00622e-05
2.7808e-05
1.08498e-05
8.20571e-06
2.98521e-06
1.6523e-05
2.20788e-05
7.4463e-06
9.90876e-06
1.31473e-05
1.64727e-05
3.48149e-05
1.39916e-05
2.11601e-05
2.10285e-05
1.86208e-05
3.1534e-05
1.91315e-05
1.86549e-05
1.67064e-05
2.51224e-05
2.32487e-05
2.08754e-05
2.1862e-05
1.4307e-05
3.22392e-05
1.63495e-05
2.58062e-05
1.32358e-05
1.57859e-05
2.19261e-05
2.88794e-05
1.31235e-05
2.12043e-05
2.48123e-05
1.8878e-05
2.04889e-05
2.05204e-05
1.50796e-05
1.28732e-05
1.51842e-05
1.97702e-05
1.86122e-05
2.15159e-05
2.25674e-05
2.38003e-05
1.85681e-05
1.79024e-05
1.57814e-05
1.74188e-05
2.00246e-05
1.24696e-05
1.83418e-05
2.06589e-05
1.49844e-05
1.15658e-05
9.25679e-06
1.24172e-05
1.41202e-05
1.91297e-05
1.30508e-05
2.71806e-05
2.31184e-05
2.05051e-05
1.39052e-05
6.03783e-06
6.18801e-06
2.39503e-05
2.7943e-05
7.49255e-06
2.04662e-05
1.33282e-05
3.06572e-05
1.44274e-05
2.24639e-05
2.14773e-05
2.06169e-05
7.15567e-06
2.44312e-05
1.51876e-05
2.58417e-05
1.38969e-05
1.60966e-05
2.22464e-05
1.7272e-05
6.21282e-06
1.04269e-05
8.41954e-06
1.74522e-05
1.9423e-05
2.23645e-05
2.23611e-05
1.33542e-05
2.03084e-05
1.86334e-05
1.86734e-05
2.36996e-05
1.04624e-05
1.71995e-05
4.95444e-06
2.76549e-05
1.09527e-05
1.34853e-05
1.50742e-05
2.57779e-05
1.03686e-05
1.66449e-05
2.68581e-05
1.92221e-05
2.21141e-05
1.61726e-05
1.49935e-05
2.63974e-05
2.35226e-05
1.94948e-05
1.88507e-05
2.31977e-05
1.60331e-05
2.51498e-05
6.38673e-06
1.23514e-05
8.99854e-06
5.13781e-06
1.39415e-05
1.21672e-05
1.42708e-05
2.36648e-05
1.74471e-05
1.89579e-05
2.47694e-05
2.20228e-05
1.68898e-05
3.14207e-05
1.7858e-05
1.88431e-05
1.43136e-05
1.63164e-05
1.47026e-05
1.8522e-05
2.33941e-05
1.75881e-05
1.70505e-05
2.87903e-05
2.35594e-05
1.99367e-05
1.69627e-05
1.32302e-05
2.57021e-05
2.1636e-05
1.89065e-05
1.37224e-05
1.8501e-05
1.18216e-05
1.72058e-05
2.2983e-05
1.47307e-05
2.98396e-05
1.28932e-05
2.40417e-05
1.64461e-05
1.13743e-05
9.5504e-06
1.198e-05
1.22798e-05
1.03071e-05
1.58e-05
1.87456e-05
2.53616e-05
3.26479e-05
2.58616e-05
2.80017e-05
1.71666e-05
1.77301e-05
5.22774e-06
1.53395e-05
1.7278e-05
2.16174e-05
1.99748e-05
2.28944e-05
2.04747e-05
1.59774e-05
2.19682e-05
2.16995e-05
2.59472e-05
2.96232e-05
3.72408e-06
8.5453e-06
2.10206e-05
2.41797e-05
2.06481e-05
3.34847e-05
2.66614e-05
1.51774e-05
1.81871e-05
5.5749e-06
1.11209e-05
1.14903e-05
1.27581e-05
1.30735e-05
2.38569e-05
1.45672e-05
2.10355e-05
1.73178e-05
1.91737e-05
1.03329e-05
1.099e-05
1.5595e-05
1.28018e-05
1.84877e-05
2.03793e-05
2.52626e-05
2.75941e-05
2.22528e-05
2.76482e-05
1.75567e-05
1.58017e-05
1.9153e-05
2.33197e-05
1.63579e-05
1.8734e-05
1.46653e-05
1.40902e-05
6.34078e-06
1.99169e-05
7.00556e-06
1.38165e-05
2.60038e-05
2.50682e-05
8.73612e-06
1.66006e-05
1.66538e-05
2.80046e-05
8.57043e-06
1.24828e-05
1.85029e-05
2.73605e-05
2.95219e-05
2.58253e-05
3.52503e-05
1.71032e-05
2.54379e-05
1.04188e-05
1.92085e-05
1.60028e-05
1.86644e-05
2.34549e-05
1.56724e-05
9.25006e-06
1.25849e-05
1.13268e-05
1.32011e-05
1.27481e-05
1.44801e-05
3.08046e-06
2.37112e-05
1.8023e-05
1.56172e-05
2.55329e-05
8.17925e-06
1.95949e-05
3.0073e-05
1.30106e-05
1.96417e-05
2.03198e-05
1.3098e-05
2.07573e-05
1.19508e-05
1.61629e-05
2.07059e-05
1.07344e-05
9.08303e-06
1.14439e-05
1.71192e-05
1.98557e-05
2.72336e-05
2.18815e-05
2.65051e-05
1.20076e-05
1.48869e-05
1.42557e-05
1.55355e-05
2.40171e-05
9.45829e-06
1.86442e-05
9.8732e-06
2.5999e-05
1.63287e-05
1.7073e-05
1.58334e-05
2.80356e-05
1.97943e-05
1.22049e-05
2.489e-05
6.37495e-06
1.17401e-06
8.69218e-06
1.70777e-05
2.4506e-05
1.38178e-05
1.27472e-05
1.56184e-05
1.72327e-05
1.85604e-05
3.12224e-05
2.18731e-05
2.05971e-05
8.6203e-06
1.63188e-05
1.10582e-05
2.00453e-05
1.54197e-05
1.95014e-05
1.76918e-05
2.21889e-05
1.91282e-05
1.47945e-05
2.37455e-05
2.45181e-05
8.21415e-07
1.66413e-05
2.20015e-05
2.53146e-05
2.42384e-05
3.72661e-06
1.10118e-05
3.53242e-05
2.07168e-05
1.5357e-05
3.81116e-06
1.68563e-05
2.56931e-05
1.54547e-05
1.55789e-05
1.35121e-05
2.23624e-05
1.8093e-05
1.84174e-05
2.81891e-05
2.10475e-05
1.42294e-05
6.91714e-06
2.93397e-05
1.5446e-05
2.34894e-05
1.50359e-05
1.82872e-05
1.81451e-05
1.20985e-05
1.31818e-05
2.34731e-05
1.86501e-05
1.34616e-05
1.52478e-05
1.46688e-05
1.67886e-05
2.05838e-05
2.25184e-05
1.08138e-05
6.37831e-06
1.17603e-05
2.22519e-05
2.82668e-05
2.10545e-05
2.74099e-05
9.04059e-06
1.65368e-05
3.43769e-05
2.40691e-05
1.0739e-05
1.84203e-05
2.2543e-05
1.57821e-05
1.95312e-05
1.58643e-05
1.84389e-05
1.93964e-05
1.8897e-05
7.00867e-06
2.08596e-05
1.85659e-05
1.1444e-05
1.02754e-05
1.94871e-05
1.44729e-05
1.52223e-05
1.60946e-05
1.71098e-05
3.16343e-05
2.99021e-05
2.40806e-05
2.79403e-05
1.89494e-05
2.13811e-05
7.25908e-06
1.32035e-05
1.90054e-05
2.42832e-05
6.20663e-06
2.09999e-05
2.30739e-05
2.04e-05
1.30465e-05
1.12869e-05
2.13985e-05
1.07916e-05
2.28683e-05
1.57129e-05
2.84776e-05
2.54412e-05
1.59874e-05
1.86549e-05
1.85268e-05
1.18759e-05
2.46197e-05
2.0007e-05
2.48329e-05
2.2925e-05
2.21315e-05
2.82773e-05
1.93558e-05
2.06188e-05
1.71434e-05
1.02998e-05
7.26952e-06
1.47929e-05
1.78386e-05
2.68688e-05
1.0961e-05
1.82227e-05
2.03345e-05
1.6332e-05
6.53749e-06
2.33135e-05
2.01055e-05
7.65874e-06
1.82151e-05
1.08416e-05
7.26312e-06
2.14388e-05
1.98399e-05
2.25049e-05
1.50406e-05
1.6285e-05
1.71257e-05
5.28776e-06
9.96419e-06
1.62688e-05
1.07163e-05
2.44668e-05
1.31653e-05
2.08158e-05
1.60232e-05
1.78301e-05
2.05014e-05
2.54082e-05
2.05486e-05
1.66563e-05
1.40023e-05
1.50021e-05
1.60937e-05
1.88519e-05
2.63315e-05
2.0952e-05
2.23913e-05
2.33323e-05
1.72694e-05
1.73882e-05
1.06532e-05
1.43576e-05
1.10484e-05
1.6538e-05
1.02633e-05
1.28402e-05
2.76467e-05
5.35026e-06
2.058e-05
2.70893e-05
1.16687e-05
1.75465e-05
3.1204e-05
1.37893e-05
1.71437e-05
1.24821e-05
1.22695e-05
6.35369e-06
2.08498e-05
1.88566e-05
1.25395e-05
2.35287e-05
1.20277e-05
5.21121e-06
9.53781e-06
2.49969e-05
1.58564e-05
2.3539e-05
1.34614e-05
1.61448e-05
1.91366e-05
2.13956e-05
1.34263e-05
3.558e-05
1.35123e-05
1.01387e-05
7.33599e-06
8.018e-06
2.40338e-05
1.59113e-05
7.12046e-06
1.83794e-05
2.4866e-05
7.04754e-06
1.59945e-05
1.50209e-05
1.07592e-05
5.01786e-06
3.33398e-06
3.7102e-06
1.66011e-05
2.36592e-05
2.40193e-05
1.95723e-05
2.36418e-05
1.29419e-05
1.22489e-05
6.36557e-06
2.29111e-05
2.73154e-05
1.87668e-05
1.54997e-05
2.3993e-05
1.54886e-05
9.96252e-06
2.46276e-05
2.49671e-05
2.3602e-05
3.14227e-05
9.35602e-06
2.5096e-05
2.18803e-06
2.63972e-05
2.23487e-05
1.86454e-05
2.20018e-05
5.15133e-06
1.8143e-05
9.00788e-06
2.06938e-05
1.62058e-05
2.98099e-05
8.77971e-06
1.70725e-05
1.72293e-05
1.42088e-05
2.17312e-05
1.18688e-05
1.90237e-05
2.0959e-05
1.39813e-05
1.89513e-05
1.13971e-05
2.2877e-05
1.97318e-05
1.60687e-05
2.32202e-05
2.2226e-05
2.40029e-05
1.58486e-05
1.97023e-05
1.09631e-05
1.41669e-05
2.03636e-05
2.18523e-05
9.35523e-06
1.78228e-05
2.57913e-05
2.80676e-05
1.58398e-05
2.31207e-05
1.3689e-05
1.02929e-05
2.80426e-05
2.10219e-05
1.56584e-05
2.68299e-05
1.72184e-05
8.71817e-06
2.77437e-05
1.01787e-05
2.03163e-05
1.67654e-05
1.44659e-05
6.79079e-06
1.21539e-05
1.10215e-05
4.98944e-06
3.1328e-05
1.54749e-05
1.06366e-05
1.84019e-05
2.15832e-05
1.18353e-05
1.67073e-05
1.23345e-05
2.38495e-05
1.02512e-05
1.79142e-05
2.39897e-05
1.02337e-05
2.10705e-05
1.61768e-05
7.71819e-06
2.33202e-05
1.03656e-06
1.81108e-05
2.51258e-05
2.3148e-05
2.07536e-05
1.37255e-05
1.16673e-05
3.65659e-05
2.46134e-05
1.15024e-05
9.1616e-06
2.1128e-05
3.27557e-05
1.88491e-05
2.08516e-05
1.9083e-05
3.10728e-05
1.04148e-05
2.34571e-05
1.83586e-05
2.3347e-05
2.25435e-05
1.6978e-05
1.31778e-05
2.49882e-05
1.08182e-05
1.33484e-05
8.94302e-06
2.06152e-05
9.94771e-06
1.78461e-05
2.28805e-05
2.98794e-05
2.56462e-05
2.78549e-05
1.72289e-05
3.52155e-05
1.92987e-05
1.82304e-05
9.29682e-06
2.19275e-05
1.05826e-05
2.48287e-05
2.02195e-05
1.78131e-05
2.24494e-05
1.6272e-05
2.19633e-05
1.70951e-05
1.00875e-05
2.13683e-05
1.89684e-05
1.94966e-05
2.10362e-05
2.40923e-05
7.71082e-06
2.58411e-05
1.59702e-05
2.5101e-05
2.37035e-05
2.07011e-05
1.60808e-05
1.67833e-05
1.12969e-05
2.17297e-05
1.83678e-05
7.54005e-06
2.22169e-05
1.3865e-05
5.64777e-06
1.29274e-05
2.34648e-05
2.41263e-05
3.24712e-05
1.92437e-05
1.55062e-05
2.07846e-05
1.32447e-05
3.37058e-05
2.22027e-05
7.2661e-06
1.96614e-05
2.27683e-05
1.97236e-05
1.96319e-05
5.68877e-06
2.14204e-05
2.11467e-05
1.96401e-05
2.44681e-05
1.29535e-05
1.23681e-05
3.60489e-05
2.38844e-05
2.31342e-05
3.43747e-05
1.73031e-05
1.14466e-05
2.0306e-05
7.41404e-06
2.01395e-05
4.87712e-06
9.85727e-06
2.05309e-05
2.46795e-05
5.38365e-06
1.65466e-05
2.63631e-05
2.14855e-05
1.65313e-05
2.14121e-05
2.39085e-05
2.61791e-05
5.93669e-06
1.18245e-05
1.94998e-05
1.61244e-05
2.01968e-05
1.66502e-05
2.17597e-05
1.92713e-05
1.06066e-05
2.81465e-05
2.03844e-05
2.18501e-05
1.94326e-05
1.56003e-05
2.12087e-05
1.8379e-05
2.70961e-05
2.19541e-05
2.64361e-05
1.13704e-05
2.5501e-05
1.59114e-05
2.36425e-05
2.33984e-05
2.08486e-05
2.80856e-05
1.9148e-05
1.93932e-05
2.08417e-05
1.00538e-05
1.06188e-05
2.35406e-05
1.88368e-05
1.95042e-05
1.4559e-05
1.88749e-05
2.36286e-05
1.97783e-05
1.49956e-05
2.02374e-05
2.52951e-05
2.18394e-05
1.75407e-05
5.22718e-06
2.03323e-05
1.65881e-05
2.51604e-05
1.57785e-05
1.44595e-05
1.91188e-05
2.46017e-05
2.8656e-05
7.27886e-06
3.11868e-05
2.176e-05
1.58759e-05
1.93212e-05
2.01796e-05
1.70293e-05
1.5383e-05
9.37015e-06
3.07704e-05
1.86988e-05
2.37139e-05
1.26589e-05
1.05291e-05
3.42357e-05
1.26319e-05
2.56517e-05
1.20801e-05
7.80759e-06
2.20069e-05
1.24529e-05
1.88213e-05
1.56895e-05
2.74129e-05
1.95411e-05
2.07917e-05
1.97291e-05
2.02772e-05
2.46896e-05
2.73641e-05
2.38997e-05
2.26647e-06
1.99899e-05
1.25435e-05
1.13548e-05
3.31447e-05
2.76492e-05
2.63122e-05
1.25651e-05
1.42634e-05
1.64507e-05
1.79244e-05
1.48657e-05
2.25804e-05
2.45835e-05
1.20377e-05
2.4255e-05
1.05087e-05
1.85646e-05
3.58771e-06
8.12254e-06
3.14266e-05
1.39029e-05
2.08685e-05
3.23696e-05
2.19152e-05
1.24981e-05
2.02796e-05
1.86462e-05
2.82918e-05
2.17232e-05
2.46439e-05
1.39906e-05
8.26811e-06
3.88162e-05
2.0555e-05
1.62209e-05
2.79121e-05
8.01909e-06
3.22227e-05
9.61239e-06
2.08916e-05
2.30708e-05
1.43899e-05
1.78483e-05
1.9236e-05
1.63375e-05
1.67028e-05
1.67989e-05
2.06805e-05
1.59822e-05
3.63621e-05
2.11095e-05
2.60329e-05
1.0939e-05
9.83975e-06
1.97937e-05
1.45921e-05
3.26121e-05
1.57102e-05
2.73422e-05
2.38966e-05
2.19476e-05
2.40269e-05
2.81183e-05
2.58706e-05
2.41086e-05
1.95894e-05
1.90052e-05
2.12266e-05
7.04485e-06
2.6944e-05
2.41948e-05
2.2756e-05
2.01159e-05
2.90807e-05
1.87797e-05
9.28449e-06
1.85827e-05
2.19712e-05
1.05188e-05
9.9099e-06
2.24628e-05
1.91172e-05
1.42417e-05
1.09222e-05
2.0662e-05
1.90259e-05
1.29055e-05
1.75905e-05
2.24988e-05
2.67332e-05
1.96217e-05
6.2194e-06
1.82993e-05
3.18633e-05
8.9441e-06
1.08006e-05
1.72478e-05
1.89347e-05
1.096e-05
2.75191e-05
7.1316e-06
2.07915e-05
1.45365e-05
4.54943e-06
2.83625e-05
1.63941e-05
1.56188e-05
2.00556e-05
1.88765e-05
6.84215e-06
1.81496e-05
2.42693e-05
3.03555e-05
1.84979e-05
9.06654e-06
1.78651e-05
1.82671e-05
1.22789e-05
6.09391e-06
1.77565e-05
6.5689e-06
1.16034e-05
2.63355e-05
1.13812e-05
1.87007e-05
2.15926e-05
1.42562e-05
1.31322e-05
4.67328e-06
1.36886e-05
9.2014e-06
2.11341e-05
1.59857e-05
1.89771e-05
1.79541e-05
8.18304e-06
2.25988e-05
1.489e-05
1.58556e-05
3.13144e-05
1.8319e-05
1.14281e-05
3.05968e-05
1.98983e-05
1.68765e-05
2.23261e-05
7.93958e-06
1.33599e-05
4.80975e-06
5.80077e-06
1.81716e-06
8.70403e-06
6.56866e-06
3.98343e-06
1.96886e-05
4.57545e-06
5.2313e-06
1.86293e-05
6.36388e-06
8.84697e-06
7.08257e-06
1.17243e-05
1.60313e-05
1.4876e-05
1.16029e-05
8.77121e-06
1.22423e-05
1.13005e-05
2.6086e-06
1.08513e-05
7.71057e-06
1.74763e-05
1.40712e-05
7.53502e-06
1.09786e-05
1.03672e-05
1.76364e-05
1.45709e-05
4.77311e-06
5.90194e-06
8.48294e-06
6.31402e-06
2.91832e-05
4.83325e-06
2.61578e-05
2.03346e-06
6.57728e-06
1.47432e-05
1.82758e-05
2.025e-05
6.62341e-06
1.30812e-05
1.3448e-05
1.05377e-05
9.73182e-06
8.48019e-06
2.50504e-06
1.08344e-05
1.59273e-05
5.02981e-06
1.65131e-05
1.02238e-06
1.6534e-05
1.86492e-05
2.00148e-05
2.47365e-05
1.62399e-05
2.87125e-06
4.19997e-06
1.04716e-05
1.13569e-05
3.1648e-06
5.32818e-06
1.35651e-05
1.55423e-05
9.73593e-06
2.57664e-05
6.14639e-06
1.64387e-05
1.26255e-05
2.16111e-05
1.25098e-05
6.75942e-06
7.65182e-06
4.95278e-06
1.09864e-05
2.84906e-05
1.38302e-05
8.72185e-06
8.60485e-06
1.31578e-05
1.80505e-05
9.02224e-06
6.02575e-06
8.41917e-06
6.85395e-06
1.23976e-05
8.56129e-06
1.55772e-06
1.70284e-05
1.65627e-05
1.44824e-05
1.6391e-05
7.04545e-06
3.60877e-06
1.92624e-05
1.75281e-05
5.609e-06
2.29884e-05
1.62122e-05
2.14472e-05
1.12332e-05
5.67805e-06
1.57763e-05
8.33743e-06
1.01416e-05
1.95844e-05
6.85284e-06
6.06428e-06
5.43477e-06
2.11791e-05
1.60184e-05
9.0578e-06
7.16767e-06
5.67143e-06
9.17244e-06
6.49421e-06
1.01e-05
1.93659e-05
8.45656e-06
2.51489e-05
6.60716e-06
8.70847e-06
1.58655e-05
1.93031e-05
7.8963e-06
1.58273e-05
5.24392e-06
1.88995e-05
5.68923e-06
1.05407e-05
8.04692e-06
3.65858e-06
1.34307e-05
1.39435e-05
1.54389e-05
4.74537e-06
2.1027e-05
8.32627e-06
1.6142e-05
7.72433e-06
9.34044e-06
9.92506e-06
9.08966e-06
1.78886e-05
1.2354e-05
1.59737e-05
3.12068e-06
6.32426e-06
2.86766e-05
1.8649e-05
9.78735e-06
2.28446e-05
1.31864e-05
1.8723e-05
1.74389e-06
2.7634e-05
8.06449e-06
1.47674e-05
1.23499e-05
2.18044e-05
1.31073e-05
7.50457e-06
8.48681e-06
6.23821e-06
2.07374e-05
7.38934e-06
2.4957e-05
2.0976e-05
1.69765e-05
1.6089e-05
2.39416e-05
1.70182e-05
2.35312e-05
1.26183e-05
8.4149e-06
2.39231e-05
1.29718e-05
2.72711e-05
2.00023e-05
1.09449e-05
2.19769e-05
5.92859e-06
1.55286e-05
1.35298e-05
1.55591e-05
2.41353e-05
4.99881e-06
3.34315e-05
9.71116e-06
1.46241e-05
4.67259e-06
1.11377e-05
1.35569e-05
1.24027e-05
1.39448e-05
2.58214e-05
1.66436e-05
1.16717e-05
9.20468e-06
1.18386e-05
2.07695e-05
9.25817e-06
1.1639e-05
9.42596e-06
1.71018e-05
1.65612e-05
1.51775e-05
2.11566e-05
1.70368e-05
1.57048e-05
1.23397e-05
6.26229e-06
1.28205e-05
2.27944e-05
1.26436e-05
6.76095e-06
1.37742e-05
1.16164e-05
7.97622e-06
2.08295e-05
1.2982e-05
2.20947e-05
1.29787e-05
2.10528e-05
4.63631e-06
1.98445e-05
1.08376e-05
1.75781e-05
1.57792e-05
1.58526e-05
7.20668e-06
1.10809e-05
8.13855e-06
1.47611e-05
2.81077e-05
1.68826e-05
1.72888e-05
2.30679e-05
1.41439e-05
2.26216e-05
2.23689e-05
2.49375e-05
3.09781e-05
1.64924e-05
2.17181e-05
2.77981e-05
1.17733e-05
1.68817e-05
2.30005e-05
1.61086e-05
1.91281e-05
6.80504e-06
1.1487e-05
3.32213e-06
7.27056e-06
8.32291e-06
2.00138e-05
1.62866e-05
2.02444e-05
2.2496e-05
1.86175e-05
1.07231e-05
4.73241e-06
1.46177e-05
1.03095e-05
1.30705e-05
3.30361e-06
8.15149e-06
4.89746e-06
2.14292e-05
1.10309e-05
9.05958e-06
1.28011e-05
1.94517e-05
1.42403e-05
1.19361e-05
1.40316e-05
1.06245e-05
2.15799e-05
6.64932e-06
7.21744e-06
5.94708e-06
1.28486e-05
1.52928e-05
9.60595e-06
3.12434e-05
5.24672e-06
9.33467e-06
1.45406e-05
4.89358e-06
1.62375e-05
4.77715e-06
1.48667e-05
9.91475e-06
9.70914e-06
2.8565e-05
2.06949e-05
1.02848e-05
1.57494e-05
2.05314e-05
7.44862e-06
2.4141e-05
1.24099e-05
1.69364e-05
2.24408e-05
3.98294e-06
1.34217e-05
2.16893e-05
1.28427e-05
1.50662e-05
1.68462e-05
1.88789e-05
2.03807e-05
3.78657e-06
8.85747e-06
9.86756e-06
1.75484e-05
4.41052e-06
9.54825e-06
1.57422e-05
3.05441e-05
2.7957e-05
1.08471e-05
1.279e-05
7.25983e-06
1.3966e-05
2.4969e-05
1.39365e-05
1.28902e-05
2.21231e-05
2.91735e-06
1.05503e-05
9.01125e-06
1.89639e-05
2.44891e-05
1.51711e-05
6.43462e-06
9.03198e-06
1.28701e-05
1.42936e-05
9.3713e-06
7.18724e-06
1.75714e-05
9.83692e-06
8.63053e-06
1.67897e-05
1.42444e-05
5.18117e-06
1.72142e-05
1.86914e-05
2.0205e-05
4.0237e-06
8.91799e-06
7.45331e-06
8.63805e-06
2.08717e-05
1.61586e-05
1.20019e-05
1.54201e-05
1.30863e-05
1.14564e-05
3.76182e-05
2.3344e-05
1.94163e-05
7.423e-06
6.48143e-06
1.25318e-05
7.00118e-06
1.04622e-05
1.66177e-05
9.35958e-06
1.53956e-05
1.26617e-05
1.52999e-05
1.24577e-05
2.14467e-05
1.08534e-05
1.73765e-05
2.14669e-05
1.67414e-05
6.71991e-06
3.39408e-05
2.4819e-05
6.34974e-06
1.01661e-05
1.18194e-05
2.89372e-06
8.53144e-06
2.22494e-05
4.82305e-06
1.0662e-05
1.52899e-05
9.44553e-06
6.88093e-06
9.26145e-06
1.22464e-05
1.16669e-05
1.49056e-05
1.41819e-05
1.5034e-05
8.18598e-06
1.17544e-05
1.43047e-05
6.98251e-06
2.73915e-05
1.21473e-05
2.21105e-05
2.39605e-05
2.32361e-05
1.77762e-05
1.09584e-05
1.85924e-05
2.61913e-05
1.05579e-05
4.27632e-06
6.03694e-06
1.22517e-05
2.89503e-06
2.71432e-05
1.4496e-05
1.4838e-05
5.72781e-06
2.60849e-05
5.80115e-06
2.2369e-05
1.33877e-05
5.25193e-06
2.37023e-05
8.17688e-06
2.03368e-05
8.75946e-06
8.09157e-06
2.53123e-05
5.76873e-06
1.56703e-05
2.15357e-05
2.02929e-05
1.79888e-05
1.84901e-05
1.1774e-05
1.80008e-05
4.23855e-06
1.70539e-05
3.16695e-06
1.0542e-05
1.61072e-05
4.0241e-06
7.2711e-06
1.23627e-05
1.30328e-05
1.96861e-05
1.15962e-05
1.95556e-05
2.76121e-05
3.25306e-06
2.86065e-05
2.44008e-05
1.76749e-05
1.80697e-05
1.27851e-05
1.73231e-05
1.8867e-05
9.46135e-06
9.81924e-06
5.04064e-06
1.23679e-05
2.68682e-05
1.85672e-05
1.16641e-05
1.43266e-05
1.01393e-05
1.19302e-05
1.0793e-05
4.08979e-06
1.42148e-05
1.43847e-05
1.47906e-05
1.83714e-05
1.9346e-05
1.79214e-05
7.42855e-06
8.49835e-06
1.93509e-05
1.53453e-05
2.11996e-05
2.5031e-05
2.96155e-05
5.43151e-06
1.8958e-06
1.52316e-05
8.22702e-06
4.44386e-06
1.1379e-05
1.69072e-05
2.10857e-05
3.69383e-06
4.55294e-06
2.12236e-05
1.49637e-05
5.32594e-06
1.74661e-05
6.54113e-06
1.24137e-05
1.49281e-05
1.06534e-05
6.72722e-06
1.19379e-05
1.36793e-05
4.59942e-06
1.04516e-05
2.88395e-05
3.31273e-06
1.98708e-05
1.57456e-05
1.02652e-05
8.62792e-06
1.75684e-05
7.27377e-06
6.58578e-06
2.31782e-05
2.24241e-05
1.75728e-05
2.18907e-05
9.16041e-06
2.66291e-05
2.20476e-05
8.8637e-06
1.79007e-05
1.06798e-05
2.22132e-05
2.5691e-05
2.43206e-05
1.22664e-05
1.48557e-05
1.82907e-05
1.30561e-05
4.5887e-06
2.11134e-05
2.4431e-05
2.30979e-05
2.14537e-05
2.98653e-05
1.94851e-05
1.17369e-05
2.17869e-05
1.21066e-05
1.96106e-05
1.35827e-05
1.27904e-05
2.04326e-05
1.24549e-05
1.69107e-05
1.80817e-05
1.78904e-05
3.99968e-06
1.20577e-05
1.41454e-05
1.19642e-06
1.08207e-05
9.46269e-06
3.56519e-05
2.2107e-05
9.26388e-06
2.54396e-05
1.96302e-06
5.48667e-06
1.08761e-05
1.39452e-05
2.54158e-05
6.90765e-06
1.522e-05
1.70036e-05
7.19139e-06
1.30467e-05
1.15349e-05
4.55037e-06
5.2878e-06
7.41313e-06
2.98262e-05
2.11486e-05
9.8089e-06
1.1629e-05
1.9988e-05
6.43431e-06
2.18252e-05
3.29628e-06
6.52861e-06
1.55107e-05
2.37927e-05
2.08031e-05
1.79238e-05
1.93729e-05
2.08201e-05
1.00376e-05
1.79818e-05
8.27655e-06
2.4832e-05
3.76362e-05
1.18819e-05
1.15534e-05
2.15239e-05
2.54271e-05
6.80221e-06
1.70403e-05
2.00809e-05
5.6456e-06
1.60858e-05
2.16537e-05
1.14045e-05
1.34308e-05
1.98466e-05
1.91078e-05
1.59157e-05
3.41991e-05
1.55543e-05
9.32429e-06
1.43445e-05
6.17932e-06
2.27863e-05
2.99641e-06
2.57781e-05
9.52767e-06
8.59787e-06
1.77975e-05
6.4521e-06
1.21183e-05
2.55786e-05
9.26087e-06
1.70377e-05
1.07354e-05
1.69225e-05
1.07716e-05
2.0577e-05
7.96563e-06
1.77255e-05
2.57089e-05
1.51029e-05
3.65122e-06
1.92877e-05
1.28203e-05
3.24924e-05
1.17764e-05
1.30419e-05
8.39721e-06
8.36293e-06
1.98715e-05
2.65195e-05
1.30923e-05
2.78733e-05
2.53909e-05
1.32663e-05
1.2355e-05
7.47374e-06
1.58649e-05
1.94611e-05
6.57881e-06
2.23813e-05
2.4676e-05
2.28313e-05
1.18293e-05
1.19469e-05
6.68451e-06
2.73334e-05
1.73123e-05
2.13844e-05
1.79554e-05
3.18332e-06
1.44674e-05
2.78165e-05
2.31089e-05
1.73928e-05
1.80728e-05
1.24379e-05
1.40859e-05
2.44193e-05
2.02884e-05
1.93248e-05
1.47711e-05
1.51108e-05
2.61099e-05
1.61046e-05
1.22726e-05
2.84974e-05
4.78996e-06
1.02957e-05
2.53121e-05
1.51138e-05
2.6642e-05
1.49992e-05
1.66307e-05
7.23356e-06
8.83287e-06
2.33373e-05
2.28884e-05
1.12845e-05
1.76061e-05
1.44274e-05
1.78864e-05
6.46944e-06
9.99803e-06
1.63655e-05
1.93662e-05
1.60906e-05
5.25709e-06
7.27044e-06
1.41952e-05
9.40492e-06
1.3767e-05
1.65442e-05
1.36008e-05
1.63554e-06
9.96347e-06
7.60238e-06
1.28235e-05
1.70302e-05
7.43541e-06
2.10765e-05
4.30674e-06
2.47235e-05
1.68686e-05
2.03327e-05
2.05695e-05
2.17145e-05
2.34943e-06
1.10882e-05
1.0748e-05
4.0429e-06
6.79057e-06
2.00198e-05
1.82107e-05
1.93433e-05
4.18019e-06
6.87386e-06
1.61004e-05
1.6532e-05
1.44773e-05
2.46344e-05
2.47968e-05
1.2891e-05
1.08004e-05
1.42191e-05
1.76115e-05
2.62009e-05
2.25538e-05
2.47251e-05
1.02203e-05
1.18705e-05
8.70079e-06
1.6473e-05
1.8871e-05
1.27609e-05
1.90357e-05
2.3581e-05
8.41696e-06
1.43942e-05
1.07296e-05
1.19567e-05
5.27393e-06
1.7451e-05
1.16913e-05
8.50753e-06
7.50333e-06
1.86458e-05
9.64746e-06
1.74007e-05
1.3528e-05
2.40412e-05
1.68848e-05
1.15029e-05
7.05744e-06
2.67153e-05
1.71002e-05
1.2339e-05
1.62834e-05
7.67704e-06
1.34214e-05
1.27145e-05
1.14687e-05
1.70405e-05
4.72714e-06
1.53434e-05
7.45403e-06
1.7527e-05
6.79325e-06
1.58608e-05
1.19739e-05
1.47096e-05
1.61661e-05
7.21705e-06
1.75023e-05
1.56497e-05
1.51484e-05
7.25114e-06
1.91808e-05
1.75348e-05
1.82672e-05
1.49939e-05
2.3917e-05
1.199e-05
2.35406e-05
2.29263e-05
7.41203e-06
1.09802e-05
1.50671e-05
4.48168e-06
1.1447e-05
4.56748e-06
2.77613e-05
2.46044e-05
1.13933e-05
9.25072e-06
1.94698e-05
1.21697e-05
2.01462e-05
8.20154e-06
1.98017e-05
2.28588e-05
1.36473e-05
2.67225e-05
2.26713e-05
7.79731e-06
1.27275e-05
1.34436e-05
1.57818e-05
1.64795e-05
1.43741e-05
2.11624e-05
1.0113e-05
1.61349e-05
1.76457e-05
1.98437e-05
4.80892e-06
1.32271e-05
2.81808e-05
2.50104e-05
2.15429e-05
1.03631e-05
2.8623e-05
5.93491e-06
9.78408e-06
1.28995e-05
1.86566e-05
1.98353e-05
1.96578e-05
2.35243e-05
1.67201e-05
2.61308e-05
1.35252e-05
9.94835e-06
5.21942e-06
4.45193e-06
1.74387e-05
1.53081e-05
1.30726e-05
1.44915e-05
1.00461e-05
5.27731e-06
1.258e-05
1.22895e-05
2.35374e-05
9.8787e-06
2.35244e-05
2.66888e-05
5.80824e-06
1.73749e-05
7.47102e-06
9.31576e-06
1.82768e-05
1.40073e-05
2.30337e-05
1.00117e-05
1.14628e-05
1.67021e-05
8.53484e-06
8.601e-06
1.08145e-05
9.25642e-06
1.44266e-05
4.58898e-06
2.03091e-05
3.80193e-06
1.92234e-05
1.0323e-05
5.61178e-06
2.41363e-05
6.14851e-06
1.82226e-05
1.75267e-05
1.34966e-06
1.56859e-05
2.58656e-05
1.67506e-05
3.60833e-06
1.61085e-05
2.42458e-05
2.15597e-05
2.22177e-05
2.01113e-05
1.01847e-05
2.51252e-05
6.08119e-06
1.8103e-05
2.0499e-05
2.43992e-05
1.98137e-05
1.52279e-05
2.22652e-05
3.23718e-05
8.03934e-06
9.91407e-06
8.03324e-06
1.88118e-05
1.53529e-05
2.20561e-05
1.04493e-05
1.73018e-05
1.498e-05
2.1612e-05
1.002e-05
2.07606e-05
1.89596e-05
6.06497e-06
1.66985e-05
7.32058e-06
7.62792e-06
2.55848e-05
1.70026e-05
1.23433e-05
5.20322e-06
1.32704e-05
1.55665e-05
1.10528e-05
1.41505e-05
9.58863e-06
5.35309e-06
4.8212e-06
1.63777e-05
2.64536e-06
2.1196e-05
2.40736e-05
5.22449e-06
2.25366e-05
1.79226e-05
1.00847e-05
2.5254e-05
1.25277e-05
1.35825e-05
2.88857e-05
2.29988e-05
3.48061e-05
1.55168e-05
1.17685e-05
1.50259e-05
1.748e-05
9.87007e-06
2.0298e-05
2.11243e-05
3.25793e-05
1.86499e-05
5.50707e-06
1.32839e-05
5.24371e-06
9.50502e-06
1.69266e-05
8.0459e-06
9.5834e-06
1.88537e-05
1.07159e-05
2.70584e-05
1.62094e-05
1.34095e-05
5.64868e-06
2.06696e-05
8.77804e-06
1.45313e-05
1.66265e-05
1.57718e-05
1.56684e-05
2.7119e-05
1.9888e-05
9.98905e-06
1.74424e-05
1.27904e-05
1.33155e-05
1.03305e-05
1.67973e-05
1.24833e-06
1.35362e-05
9.59857e-06
2.29569e-05
1.13422e-05
1.64717e-05
2.11129e-05
1.33128e-05
1.05285e-05
1.19381e-05
5.54782e-06
2.2628e-05
1.13523e-05
1.65037e-06
1.63063e-05
2.07392e-05
2.72075e-05
7.69929e-06
3.29701e-05
1.11631e-05
9.9724e-06
4.43613e-06
1.22656e-05
1.59141e-05
7.47861e-06
1.04991e-05
1.83764e-05
9.45693e-06
7.90382e-06
2.60456e-05
9.06136e-06
1.41086e-05
1.93037e-05
2.43466e-05
1.06564e-05
2.00264e-05
9.06279e-06
3.32842e-05
1.00084e-05
1.65667e-05
2.06902e-05
2.47224e-05
2.46836e-05
3.24016e-06
1.50505e-05
6.97123e-06
9.14365e-06
1.30391e-05
5.55824e-06
3.42463e-06
9.65828e-06
2.46067e-05
1.53202e-05
8.13934e-06
5.86036e-06
2.72621e-05
9.49145e-06
4.34516e-06
1.2828e-05
2.50492e-05
1.36211e-05
1.14835e-05