/*--------------------------------*- C++ -*----------------------------------*\
| =========                 |                                                 |
| \\      /  F ield         | OpenFOAM: The Open Source CFD Toolbox           |
|  \\    /   O peration     | Version:  1.7.0                                 |
|   \\  /    A nd           | Web:      www.OpenFOAM.com                      |
|    \\/     M anipulation  |                                                 |
\*---------------------------------------------------------------------------*/
FoamFile
{
    version     2.0;
    format      ascii;
    class       vectorField;
    location    "0.33/lagrangian/defaultCloud";
    object      n;
}
// * * * * * * * * * * * * * * * * * * * * * * * * * * * * * * * * * * * * * //


29889
(
(0 1 4.87563e-06)
(0 1 5.33342e-07)
(0 1 -2.98827e-07)
(0 1 3.73953e-07)
(0 1 -3.8388e-07)
(0 1 3.19593e-07)
(0 1 -1.18872e-07)
(0 1 1.38477e-06)
(0 1 5.00656e-07)
(0 1 2.28859e-06)
(0 1 -2.58969e-06)
(0 1 4.80259e-06)
(0 1 -7.86298e-08)
(0 1 -3.30928e-06)
(0 1 -8.12204e-07)
(0 1 2.7578e-06)
(0 1 -6.16653e-07)
(0 1 -4.17284e-06)
(0 1 -4.80043e-07)
(0 1 8.20148e-07)
(0 1 2.08309e-06)
(0 1 -1.33479e-08)
(0 1 -6.51295e-06)
(0 1 1.35572e-06)
(0 1 -6.47629e-10)
(0 1 -1.74515e-06)
(0 1 1.21968e-06)
(0 1 4.30558e-08)
(0 1 2.40936e-07)
(0 1 4.41239e-07)
(0 1 3.7079e-07)
(0 1 6.01567e-06)
(0 1 2.07628e-06)
(0 1 1.29655e-06)
(0 1 4.61266e-06)
(0 1 -8.84257e-07)
(0 1 -1.30879e-07)
(0 1 -5.27439e-08)
(0 1 -2.56293e-07)
(0 1 -9.3032e-10)
(0 1 9.03796e-07)
(0 1 -1.05482e-05)
(0 1 2.61947e-07)
(0 1 3.50452e-07)
(0 1 -1.00479e-06)
(0 1 4.59944e-06)
(0 1 7.84814e-07)
(0 1 -2.77453e-07)
(0 1 3.54212e-06)
(0 1 -3.88908e-07)
(0 1 2.27163e-06)
(0 1 -6.35699e-08)
(0 1 4.44726e-07)
(0 1 -4.31926e-07)
(0 1 -4.16135e-06)
(0 1 2.44167e-07)
(0 1 4.69018e-07)
(0 1 1.25533e-06)
(0 1 1.66808e-07)
(0 1 -1.6993e-06)
(0 1 -4.30899e-06)
(0 1 1.94987e-06)
(0 1 1.55317e-06)
(0 1 -5.22882e-06)
(0 1 2.48601e-07)
(0 1 -4.56381e-09)
(0 1 -4.04791e-06)
(0 1 3.38739e-07)
(0 1 3.99961e-06)
(0 1 1.37762e-06)
(0 1 -1.51826e-06)
(0 1 -8.83986e-08)
(0 1 1.9621e-07)
(0 1 2.14903e-06)
(0 1 -4.25033e-07)
(0 1 1.33224e-07)
(0 1 -1.31323e-06)
(0 1 3.88894e-07)
(0 1 -6.99303e-08)
(0 1 -1.55635e-06)
(0 1 2.67047e-06)
(0 1 -1.31301e-08)
(0 1 5.65461e-06)
(0 1 -1.25311e-06)
(0 1 9.7698e-08)
(0 1 3.30352e-06)
(0 1 3.81378e-06)
(0 1 -4.14977e-06)
(0 1 2.35326e-07)
(0 1 9.63775e-10)
(0 1 -2.54505e-06)
(0 1 -8.30136e-07)
(0 1 1.09959e-06)
(0 1 2.81217e-06)
(0 1 -2.02729e-06)
(0 1 1.50398e-08)
(0 1 -1.39566e-06)
(0 1 -5.09129e-06)
(0 1 4.07925e-07)
(0 1 1.48801e-07)
(0 1 3.90069e-06)
(0 1 -1.49578e-06)
(0 1 4.59054e-07)
(0 1 1.1518e-06)
(0 1 2.64812e-06)
(0 1 -1.2915e-07)
(0 1 7.32896e-08)
(0 1 -1.05338e-06)
(0 1 7.4858e-07)
(0 1 3.4194e-06)
(0 1 1.63198e-07)
(0 1 2.35246e-06)
(0 1 -1.70887e-06)
(0 1 5.15521e-06)
(0 1 1.13637e-07)
(0 1 6.75124e-06)
(0 1 6.54356e-08)
(0 1 2.00556e-06)
(0 1 1.7406e-05)
(0 1 7.7199e-07)
(0 1 -1.23659e-08)
(0 1 -1.06047e-07)
(0 1 2.02747e-05)
(0 1 4.3168e-07)
(0 1 1.86885e-08)
(0 1 -6.74109e-08)
(0 1 -4.60036e-06)
(0 1 1.78667e-07)
(0 1 9.4208e-08)
(0 1 -3.80044e-06)
(0 1 -4.52461e-06)
(0 1 -4.96231e-07)
(0 1 1.30146e-05)
(0 1 3.50941e-05)
(0 1 -3.91408e-07)
(0 1 1.6869e-05)
(0 1 -1.34725e-06)
(0 1 1.80471e-07)
(0 1 5.87737e-08)
(0 1 1.79954e-09)
(0 1 9.28631e-06)
(0 1 9.98206e-06)
(0 1 -3.43334e-06)
(0 1 3.27484e-07)
(0 1 -1.12174e-06)
(0 1 -1.33909e-07)
(0 1 -1.89767e-07)
(0 1 -4.33304e-07)
(0 1 1.14338e-06)
(0 1 4.77266e-06)
(0 1 1.85593e-06)
(0 1 -6.94761e-07)
(0 1 -7.61949e-07)
(0 1 -6.91525e-06)
(0 1 -1.25213e-06)
(0 1 2.50884e-06)
(0 1 1.3009e-09)
(0 1 2.72983e-06)
(0 1 -2.03111e-06)
(0 1 -1.3995e-06)
(0 1 1.34531e-07)
(0 1 1.35514e-06)
(0 1 2.24691e-05)
(0 1 2.52716e-05)
(0 1 -2.91007e-05)
(0 1 -1.54615e-06)
(0 1 1.56543e-07)
(0 1 -3.93416e-06)
(0 1 -1.19199e-05)
(0 1 2.00517e-06)
(0 1 -4.65045e-06)
(0 1 -1.17703e-06)
(0 1 -2.94449e-06)
(0 1 -5.9996e-07)
(0 1 1.49742e-06)
(0 1 7.06373e-07)
(0 1 1.16421e-05)
(0 1 1.27067e-06)
(0 1 2.16289e-06)
(0 1 -1.15401e-07)
(0 1 1.36754e-07)
(0 1 9.40405e-06)
(0 1 -2.33118e-05)
(0 1 -1.22001e-06)
(0 1 1.57281e-06)
(0 1 1.7418e-07)
(0 1 -4.95287e-06)
(0 1 2.46249e-06)
(0 1 3.81991e-06)
(0 1 0.000106821)
(0 1 -3.98283e-05)
(0 1 -1.34291e-06)
(0 1 1.00492e-06)
(0 1 8.23238e-06)
(0 1 1.31237e-07)
(0 1 2.6664e-05)
(0 1 4.36238e-06)
(0 1 -2.29038e-06)
(0 1 -6.1798e-07)
(0 1 3.84111e-06)
(0 1 -1.74662e-06)
(0 1 5.14746e-07)
(0 1 -2.73723e-05)
(0 1 2.6334e-06)
(0 1 1.68843e-06)
(0 1 -9.29291e-06)
(0 1 1.88852e-06)
(0 1 4.01372e-06)
(0 1 9.23854e-08)
(0 1 7.99153e-05)
(0 1 -5.35564e-06)
(0 1 -1.44567e-06)
(0 1 6.92626e-07)
(0 1 -2.58434e-07)
(0 1 1.6481e-06)
(0 1 -1.27522e-06)
(0 1 4.00893e-06)
(0 1 -3.97946e-05)
(0 1 2.38683e-06)
(0 1 1.26106e-05)
(0 1 -5.95251e-07)
(0 1 -2.26638e-06)
(0 1 4.14166e-06)
(0 1 -1.69022e-06)
(0 1 -2.70932e-07)
(0 1 4.34295e-07)
(0 1 9.43355e-08)
(0 1 -2.24421e-06)
(0 1 4.72476e-06)
(0 1 3.20563e-06)
(0 1 8.27426e-06)
(0 1 -3.62597e-07)
(0 1 -7.28633e-09)
(0 1 -1.70326e-06)
(0 1 4.2927e-05)
(0 1 -6.31484e-05)
(0 1 8.18451e-06)
(0 1 5.55428e-05)
(0 1 3.85773e-06)
(0 1 2.71528e-06)
(0 1 1.33553e-06)
(0 1 9.29736e-07)
(0 1 1.58612e-06)
(0 1 -3.82876e-05)
(0 1 3.28286e-05)
(0 1 7.78787e-07)
(0 1 -8.64697e-06)
(0 1 -3.94364e-06)
(0 1 -1.95592e-05)
(0 1 2.99036e-05)
(0 1 1.84185e-05)
(0 1 4.7795e-06)
(0 1 5.48463e-06)
(0 1 -4.48428e-07)
(0 1 9.65857e-06)
(0 1 -2.61602e-07)
(0 1 -1.02118e-06)
(0 1 -5.67953e-05)
(0 1 -2.74502e-06)
(0 1 -1.30295e-06)
(0 1 2.67753e-05)
(0 1 -2.15491e-06)
(0 1 3.18596e-05)
(0 1 2.96103e-05)
(0 1 -2.30773e-06)
(0 1 1.51905e-07)
(0 1 -1.38413e-06)
(0 1 -1.75712e-06)
(0 1 -1.25467e-07)
(0 1 -4.0523e-07)
(0 1 -2.59825e-05)
(0 1 3.58707e-06)
(0 1 3.45992e-06)
(0 1 -1.67951e-06)
(0 1 -1.93955e-05)
(0 1 -7.50788e-06)
(0 1 -1.10736e-05)
(0 1 -1.57916e-06)
(0 1 1.03613e-05)
(0 1 -1.1108e-06)
(0 1 -4.05098e-06)
(0 1 1.2553e-09)
(0 1 2.02853e-06)
(0 1 -5.06391e-05)
(0 1 3.6263e-06)
(0 1 -1.91201e-06)
(0 1 -1.63232e-06)
(0 1 -1.70989e-07)
(0 1 9.14361e-06)
(0 1 -3.38286e-05)
(0 1 5.30244e-06)
(0 1 6.07285e-06)
(0 1 3.38798e-06)
(0 1 5.76415e-06)
(0 1 5.52697e-05)
(0 1 -4.27179e-05)
(0 1 -1.98436e-06)
(0 1 -2.40732e-08)
(0 1 -6.75428e-08)
(0 1 6.82432e-05)
(0 1 -2.04586e-06)
(0 1 1.01252e-06)
(0 1 4.06971e-05)
(0 1 -6.50552e-06)
(0 1 -2.56519e-05)
(0 1 -1.03983e-06)
(0 1 2.77325e-07)
(0 1 -1.12138e-05)
(0 1 1.62579e-07)
(0 1 2.96678e-06)
(0 1 2.54382e-08)
(0 1 1.00914e-05)
(0 1 -7.74666e-05)
(0 1 -1.8864e-07)
(0 1 2.83594e-05)
(0 1 1.05825e-06)
(0 1 -1.05414e-07)
(0 1 -2.5844e-06)
(0 1 -2.27715e-07)
(0 1 9.06282e-08)
(0 1 4.32283e-08)
(0 1 5.51941e-07)
(0 1 -3.62e-07)
(0 1 2.57712e-07)
(0 1 2.25152e-05)
(0 1 -6.9988e-07)
(0 1 -2.12927e-06)
(0 1 1.81812e-07)
(0 1 1.71805e-05)
(0 1 2.85155e-05)
(0 1 -1.16147e-06)
(0 1 2.65857e-05)
(0 1 6.13879e-07)
(0 1 8.63132e-06)
(0 1 -4.07978e-06)
(0 1 2.7576e-07)
(0 1 3.81717e-06)
(0 1 5.98115e-09)
(0 1 1.73881e-05)
(0 1 -5.90743e-06)
(0 1 4.30067e-06)
(0 1 -8.69513e-05)
(0 1 1.5541e-06)
(0 1 3.23864e-07)
(0 1 -6.71351e-05)
(0 1 -1.96747e-07)
(0 1 5.4873e-06)
(0 1 -4.28888e-07)
(0 1 -6.22069e-07)
(0 1 -1.66912e-08)
(0 1 9.01077e-06)
(0 1 -1.26887e-06)
(0 1 0.000139457)
(0 1 -1.4276e-06)
(0 1 6.07301e-06)
(0 1 -8.2217e-06)
(0 1 -3.75573e-06)
(0 1 -1.56212e-05)
(0 1 2.90614e-05)
(0 1 2.88593e-05)
(0 1 1.05451e-06)
(0 1 5.15371e-06)
(0 1 -1.92368e-07)
(0 1 -0.000209081)
(0 1 2.56094e-06)
(0 1 0.000131667)
(0 1 -3.22615e-06)
(0 1 -1.94052e-05)
(0 1 -2.63256e-06)
(0 1 -1.11361e-06)
(0 1 -1.25795e-06)
(0 1 1.02835e-07)
(0 1 -9.42056e-05)
(0 1 3.01749e-06)
(0 1 -4.33636e-05)
(0 1 3.38557e-06)
(0 1 4.89183e-05)
(0 1 -3.06107e-05)
(0 1 2.17611e-05)
(0 1 2.14779e-07)
(0 1 5.5921e-05)
(0 1 1.18689e-07)
(0 1 -0.000147569)
(0 1 -2.4701e-05)
(0 1 2.19919e-06)
(0 1 0.0001296)
(0 1 -1.67643e-06)
(0 1 1.27198e-05)
(0 1 5.42286e-05)
(0 1 -1.00094e-05)
(0 1 -1.33557e-05)
(0 1 1.65818e-07)
(0 1 4.73845e-06)
(0 1 -4.09172e-05)
(0 1 -7.52751e-07)
(0 1 -2.21204e-07)
(0 1 -6.64807e-05)
(0 1 0.000309612)
(0 1 3.25288e-05)
(0 1 -2.17816e-06)
(0 1 2.97666e-05)
(0 1 -1.08975e-05)
(0 1 0.000244988)
(0 1 -0.000181288)
(0 1 -1.37909e-06)
(0 1 9.93945e-06)
(0 1 1.68548e-05)
(0 1 2.37394e-06)
(0 1 7.99578e-05)
(0 1 1.3234e-05)
(0 1 4.71329e-06)
(0 1 0.000151616)
(0 1 -2.58149e-07)
(0 1 -3.15475e-07)
(0 1 -1.80757e-05)
(0 1 0.000162419)
(0 1 -2.52572e-05)
(0 1 2.53418e-05)
(0 1 -1.86181e-06)
(0 1 -0.000111394)
(0 1 -2.78069e-06)
(0 1 -1.31866e-05)
(0 1 -1.38399e-06)
(0 1 0.000141382)
(0 1 -0.000226144)
(0 1 -6.74799e-06)
(0 1 0.000472058)
(0 1 9.34985e-05)
(0 1 -2.64697e-05)
(0 1 -0.000692667)
(0 1 -6.97797e-06)
(0 1 -2.88158e-05)
(0 1 3.52702e-06)
(0 1 -0.000369674)
(0 1 0.000347957)
(0 1 -2.37889e-06)
(0 1 8.12321e-06)
(0 1 -0.00030177)
(0 1 6.28705e-05)
(0 1 1.23407e-05)
(0 1 -1.60289e-05)
(0 1 3.83185e-06)
(0 1 -3.48628e-06)
(0 1 -4.42704e-05)
(0 1 -0.00010621)
(0 1 1.79848e-06)
(0 0.999999 -0.00155751)
(0 1 -7.31332e-05)
(0 1 -0.000337152)
(0 1 -0.000240884)
(0 1 -6.07879e-05)
(0 1 -8.12941e-06)
(0 1 3.45915e-06)
(0 0.999999 -0.00140085)
(0 1 -5.26787e-07)
(0 1 -7.24546e-06)
(0 1 0.000363261)
(0 0.999998 -0.00182122)
(0 1 -1.24334e-05)
(0 1 0.000363179)
(0 1 5.88375e-05)
(0 1 -5.49562e-06)
(0 1 -2.01998e-05)
(0 1 -1.51615e-05)
(0 1 -1.79702e-05)
(0 1 0.000202726)
(0 1 -2.93889e-05)
(0 1 -9.22703e-07)
(0 1 4.85156e-06)
(0 1 -9.93553e-06)
(0 1 -7.72909e-06)
(0 1 5.23714e-06)
(0 1 2.00848e-05)
(0 1 3.45666e-05)
(0 1 8.12553e-05)
(0 1 2.19568e-05)
(0 1 0.000183098)
(0 0.999965 -0.00840021)
(0 1 0.000916266)
(0 1 -2.03074e-05)
(0 1 -1.95235e-05)
(0 1 6.12417e-07)
(0 1 -0.00033205)
(0 1 -1.67894e-06)
(0 1 9.39542e-07)
(0 1 -0.000105137)
(0 1 -5.31523e-08)
(0 1 8.17869e-05)
(0 1 -2.93506e-06)
(0 1 9.48772e-07)
(0 1 -6.11068e-06)
(0 1 4.49018e-07)
(0 1 0.000381584)
(0 1 2.4512e-06)
(0 1 -6.48754e-05)
(0 0.999945 0.0104519)
(0 1 0.000276889)
(0 1 0.000192681)
(0 1 4.16502e-05)
(0 1 2.14691e-06)
(0 1 8.4432e-05)
(0 1 0.000137556)
(0 0.999999 0.00127536)
(0 1 -0.000206298)
(0 1 -6.30363e-05)
(0 1 -2.65434e-05)
(0 1 -1.48363e-05)
(0 1 -4.73527e-06)
(0 1 -3.24345e-05)
(0 1 -3.86395e-06)
(0 1 -9.74072e-06)
(0 1 2.22294e-05)
(0 1 1.01423e-06)
(0 1 2.30642e-05)
(0 1 0.000460597)
(0 1 -4.57954e-06)
(0 1 1.63465e-05)
(0 1 3.8679e-06)
(0 1 -5.97726e-05)
(0 1 4.7257e-06)
(0 1 -1.87743e-08)
(0 1 6.45683e-07)
(0 1 0.000219396)
(0 1 -3.39659e-07)
(0 1 -6.53702e-06)
(0 1 -0.000200918)
(0 1 -0.000161321)
(0 1 0.000259628)
(0 1 0.00012183)
(0 1 -3.68825e-06)
(0 1 4.96131e-05)
(0 1 -7.86764e-06)
(0 1 -0.000160029)
(0 1 5.99803e-07)
(0 1 0.00036985)
(0 1 0.000149474)
(0 1 -1.5111e-05)
(0 1 -4.43357e-07)
(0 1 -0.000152551)
(0 1 2.00514e-05)
(0 1 1.78047e-05)
(0 1 3.79316e-05)
(0 1 1.44321e-05)
(0 1 9.26799e-05)
(0 1 1.90838e-05)
(0 1 2.94571e-06)
(0 1 -0.000110669)
(0 1 -7.6702e-07)
(0 1 0.000107476)
(0 1 8.46393e-05)
(0 1 0.000296195)
(0 1 5.71543e-06)
(0 1 -1.44963e-06)
(0 1 -3.51722e-06)
(0 1 -3.33366e-06)
(0 1 -0.000228571)
(0 1 -4.22927e-07)
(0 1 1.39107e-05)
(0 1 8.32817e-07)
(0 1 2.20513e-06)
(0 1 9.68381e-05)
(0 1 0.000120978)
(0 1 -1.51821e-05)
(0 1 -9.86412e-06)
(0 1 -3.40265e-05)
(0 1 -0.000112282)
(0 1 2.26839e-07)
(0 1 0.000466029)
(0 1 -3.33849e-06)
(0 1 2.55311e-06)
(0 1 7.23964e-07)
(0 1 0.000470677)
(0 1 -7.12264e-05)
(0 1 -7.69723e-06)
(0 1 0.000303417)
(0 1 1.3939e-05)
(0 1 -4.44288e-06)
(0 1 6.62629e-05)
(0 1 -1.85119e-05)
(0 1 2.77909e-05)
(0 1 -0.000377705)
(0 1 0.000145539)
(0 1 -1.8906e-05)
(0 1 -4.89002e-06)
(0 1 5.98742e-06)
(0 1 9.25567e-06)
(0 1 4.01085e-05)
(0 1 -1.56374e-06)
(0 1 0.000611386)
(0 1 6.01967e-06)
(0 1 5.28482e-05)
(0 1 -2.31161e-05)
(0 1 3.87515e-07)
(0 1 2.43994e-06)
(0 1 -6.12159e-06)
(0 1 -6.6313e-06)
(0 1 -1.77556e-06)
(0 1 -0.000289451)
(0 1 -1.8445e-05)
(0 1 -2.88548e-06)
(0 1 7.86448e-05)
(0 1 -0.000147376)
(0 1 1.23879e-05)
(0 1 -1.16674e-05)
(0 1 -6.79328e-05)
(0 1 9.8756e-05)
(0 1 -0.000109836)
(0 1 0.00016343)
(0 1 3.93956e-05)
(0 1 0.000361394)
(0 1 1.0547e-05)
(0 1 -4.72052e-07)
(0 1 -1.23117e-05)
(0 1 5.18024e-05)
(0 1 0.000112876)
(0 1 8.05617e-06)
(0 1 3.56687e-06)
(0 1 0.000142159)
(0 1 -1.16856e-05)
(0 1 -1.21231e-05)
(0 1 2.73851e-05)
(0 1 1.56788e-05)
(0 1 1.88167e-05)
(0 1 -2.54417e-05)
(0 1 7.19973e-07)
(0 1 6.75879e-06)
(0 1 -2.42832e-06)
(0 1 8.21657e-06)
(0 1 7.11381e-06)
(0 1 5.68125e-07)
(0 1 -0.000123051)
(0 1 0.000757377)
(0 1 0.000415252)
(0 1 3.19564e-06)
(0 1 -0.000865789)
(0 1 -0.000153185)
(0 0.999999 -0.00125399)
(0 1 -3.12189e-05)
(0 1 0.000470888)
(0 1 -9.19308e-06)
(0 1 4.424e-05)
(0 1 8.398e-05)
(0 1 9.9366e-06)
(0 1 6.97994e-06)
(0 1 0.000138278)
(0 1 -0.000301845)
(0 1 1.40733e-05)
(0 1 5.79798e-06)
(0 1 2.90209e-06)
(0 1 1.29872e-05)
(0 1 -7.42935e-05)
(0 1 -2.42784e-07)
(0 1 -2.13206e-06)
(0 1 1.66703e-07)
(0 1 1.41892e-06)
(0 1 1.22468e-05)
(0 1 2.67126e-05)
(0 1 -8.59254e-06)
(0 1 -6.03879e-06)
(0 1 6.35306e-06)
(0 1 3.25116e-06)
(0 1 -3.27815e-06)
(0 1 6.76877e-06)
(0 1 2.24684e-06)
(0 1 5.71176e-06)
(0 1 2.29169e-07)
(0 1 -3.1674e-05)
(0 1 2.55528e-05)
(0 1 -0.00022136)
(0 1 0.000148133)
(0 1 9.55053e-05)
(0 1 0.000139572)
(0 1 -3.49796e-05)
(0 1 0.000473322)
(0 1 -0.000223636)
(0 1 -0.000152687)
(0 1 3.8489e-05)
(0 1 0.000339832)
(0 1 5.21498e-06)
(0 1 2.3459e-07)
(0 1 -1.20329e-05)
(0 1 -0.000199654)
(0 1 -3.01429e-05)
(0 1 4.59014e-05)
(0 1 -7.32454e-05)
(0 1 8.79328e-05)
(0 1 -1.82283e-07)
(0 1 -7.7696e-05)
(0 1 -2.05965e-05)
(0 1 -2.08645e-05)
(0 1 -9.32057e-06)
(0 1 -0.000100654)
(0 1 7.64981e-06)
(0 1 -4.85594e-07)
(0 1 2.25823e-06)
(0 1 1.0458e-05)
(0 1 -3.99826e-05)
(0 1 -3.90174e-05)
(0 1 6.8619e-05)
(0 1 5.45296e-05)
(0 1 9.38584e-05)
(0 1 -0.0001116)
(0 1 0.000109395)
(0 1 0.000149834)
(0 1 -3.32182e-05)
(0 1 1.12228e-05)
(0 1 -3.60135e-06)
(0 1 0.000214902)
(0 1 -1.32067e-05)
(0 1 -5.98093e-06)
(0 1 -1.94982e-06)
(0 1 -6.07573e-05)
(0 1 -0.000248348)
(0 1 -0.000371024)
(0 1 6.1887e-06)
(0 1 3.74799e-07)
(0 1 -4.31917e-05)
(0 1 -0.000196921)
(0 1 3.17178e-05)
(0 1 3.80819e-05)
(0 1 -0.000247848)
(0 1 0.000466825)
(0 1 -2.95784e-05)
(0 1 -0.000119605)
(0 1 4.92221e-05)
(0 1 5.54328e-06)
(0 1 4.87172e-05)
(0 1 1.10244e-05)
(0 1 0.000145983)
(0 1 -0.000149611)
(0 1 4.58256e-07)
(0 1 8.95635e-06)
(0 1 1.27837e-05)
(0 1 -6.64333e-05)
(0 1 6.91239e-05)
(0 1 -0.000670481)
(0 1 -0.000168707)
(0 1 -2.02299e-06)
(0 1 3.06705e-06)
(0 1 5.97517e-05)
(0 1 -1.86662e-06)
(0 1 1.13317e-08)
(0 1 -2.7747e-07)
(0 1 -0.000273514)
(0 1 7.68242e-06)
(0 1 -1.88266e-05)
(0 1 3.57389e-05)
(0 1 9.01265e-06)
(0 1 -0.000190975)
(0 1 8.06284e-05)
(0 1 9.4849e-05)
(0 1 -8.1537e-05)
(0 1 -4.93724e-06)
(0 1 0.000103974)
(0 1 -1.32772e-06)
(0 1 9.31305e-06)
(0 1 -0.000141119)
(0 1 -2.80135e-05)
(0 1 -1.64545e-05)
(0 1 -0.000113294)
(0 0.999995 -0.00312165)
(0 1 -0.000109566)
(0 1 1.54023e-08)
(0 1 4.18444e-05)
(0 1 -7.24758e-05)
(0 1 5.83372e-05)
(0 1 -2.2957e-07)
(0 1 2.73207e-06)
(0 1 3.4327e-05)
(0 1 3.65259e-06)
(0 1 -2.76081e-07)
(0 1 -1.97167e-05)
(0 1 1.74679e-05)
(0 1 -8.74665e-06)
(0 1 -0.000146486)
(0 1 -0.000171475)
(0 1 -6.36711e-05)
(0 1 2.99366e-05)
(0 1 -0.000514263)
(0 1 5.85733e-05)
(0 1 -0.000153078)
(0 1 -0.000257315)
(0 1 -1.17957e-05)
(0 1 7.2128e-05)
(0 1 -7.41212e-06)
(0 1 -8.16119e-05)
(0 1 1.42339e-05)
(0 1 1.27691e-05)
(0 1 0.000694162)
(0 1 0.000358404)
(0 1 -3.28554e-06)
(0 1 -3.40384e-06)
(0 1 1.3993e-05)
(0 1 -3.2853e-05)
(0 1 -0.000168597)
(0 1 -6.89101e-06)
(0 1 -1.51439e-05)
(0 1 4.22328e-06)
(0 1 1.37018e-05)
(0 1 2.56252e-05)
(0 1 1.0907e-06)
(0 1 -1.16394e-05)
(0 1 7.76534e-06)
(0 1 2.50359e-09)
(0 1 5.96349e-05)
(0 1 7.271e-05)
(0 0.999999 0.00116398)
(0 1 -5.13291e-07)
(0 1 8.54792e-05)
(0 1 0.000109134)
(0 1 -0.000549638)
(0 1 -1.25853e-06)
(0 1 3.76341e-05)
(0 1 -0.000200714)
(0 1 -0.000337122)
(0 0.999951 -0.00991199)
(0 1 -6.9627e-05)
(0 1 1.45754e-05)
(0 1 1.83719e-05)
(0 1 1.03868e-05)
(0 1 -0.000207963)
(0 1 -0.000178372)
(0 1 -0.000140428)
(0 1 -0.000198898)
(0 1 -5.86581e-05)
(0 1 -5.03528e-06)
(0 1 3.41094e-05)
(0 1 0.000213747)
(0 0.999999 -0.00158941)
(0 1 -3.16216e-05)
(0 1 -2.55417e-05)
(0 1 -4.61347e-05)
(0 1 2.20651e-05)
(0 1 -2.83945e-05)
(0 1 -7.13343e-05)
(0 1 1.78485e-06)
(0 1 -1.13446e-06)
(0 1 -9.31169e-06)
(0 1 -7.45833e-06)
(0 1 1.20379e-06)
(0 1 -3.76485e-08)
(0 1 1.66898e-05)
(0 1 9.93407e-06)
(0 1 -3.76881e-06)
(0 1 -4.8355e-05)
(0 1 -1.06666e-05)
(0 1 1.32533e-07)
(0 1 1.29178e-05)
(0 1 -9.82929e-07)
(0 1 -9.49591e-05)
(0 1 -4.71945e-06)
(0 1 -0.000327245)
(0 1 -0.000361641)
(0 1 -4.98535e-08)
(0 1 4.67092e-05)
(0 1 1.55871e-05)
(0 1 -5.79513e-06)
(0 1 -3.34907e-05)
(0 1 1.80464e-06)
(0 1 1.00769e-05)
(0 1 -9.50835e-06)
(0 1 4.00209e-05)
(0 1 -3.67939e-05)
(0 1 -8.88845e-06)
(0 1 3.44575e-05)
(0 1 5.94268e-07)
(0 1 -2.69569e-05)
(0 1 -2.30777e-05)
(0 1 0.000442682)
(0 1 4.38048e-06)
(0 1 -2.59365e-05)
(0 1 3.06779e-05)
(0 1 1.04024e-05)
(0 1 1.2544e-05)
(0 1 -1.94008e-05)
(0 1 3.3403e-06)
(0 1 -2.15968e-06)
(0 1 6.16247e-05)
(0 1 -8.13479e-07)
(0 1 -2.8137e-05)
(0 0.999995 -0.00304482)
(0 0.999993 -0.00372305)
(0 1 -4.0586e-06)
(0 1 -9.65601e-05)
(0 1 -8.62847e-06)
(0 1 -0.000580805)
(0 1 7.98325e-06)
(0 1 4.26281e-07)
(0 1 -6.09814e-05)
(0 1 1.72972e-06)
(0 1 -4.38977e-05)
(0 1 5.61186e-05)
(0 1 -4.99485e-06)
(0 1 -1.10599e-05)
(0 1 -5.59263e-05)
(0 1 6.70872e-07)
(0 1 2.38883e-06)
(0 1 0.000102771)
(0 1 0.000125214)
(0 1 0.000170025)
(0 1 -5.67847e-05)
(0 1 9.59751e-06)
(0 1 -4.55986e-06)
(0 1 2.8349e-05)
(0 1 8.44958e-06)
(0 1 0.000192225)
(0 1 -5.25108e-05)
(0 1 7.0522e-08)
(0 1 -4.81143e-07)
(0 1 7.46775e-08)
(0 1 3.59247e-06)
(0 0.999999 0.00105846)
(0 1 8.8525e-06)
(0 1 3.50291e-06)
(0 1 3.26761e-07)
(0 1 3.27772e-07)
(0 1 -0.000123814)
(0 1 2.82794e-05)
(0 1 3.31907e-05)
(0 1 0.000144849)
(0 1 0.000183062)
(0 1 -0.000357894)
(0 1 -0.000269698)
(0 0.999996 0.00287114)
(0 1 5.32313e-05)
(0 1 1.62685e-06)
(0 1 -2.87297e-05)
(0 1 4.86647e-05)
(0 1 -0.000330279)
(0 1 -5.28123e-05)
(0 1 0.000145132)
(0 1 -1.96421e-05)
(0 1 -1.08059e-05)
(0 1 4.87047e-05)
(0 1 -3.29122e-05)
(0 1 -1.19844e-06)
(0 1 -1.14159e-05)
(0 1 -0.000989988)
(0 1 6.23356e-06)
(0 1 4.69734e-05)
(0 1 -0.000222616)
(0 1 3.4532e-05)
(0 1 -6.53175e-09)
(0 1 1.15624e-05)
(0 1 1.06017e-05)
(0 1 -6.91671e-07)
(0 1 6.09653e-05)
(0 1 6.29314e-05)
(0 1 1.19224e-06)
(0 1 1.00992e-05)
(0 1 -1.28125e-07)
(0 1 -7.21677e-07)
(0 1 4.07615e-06)
(0 1 -7.98798e-05)
(0 1 1.84439e-05)
(0 1 1.07619e-05)
(0 1 -7.98419e-05)
(0 1 6.16932e-05)
(0 1 -0.00019506)
(0 1 -0.000321792)
(0 1 0.000351181)
(0 1 0.000188151)
(0 1 -2.84701e-08)
(0 1 -8.35082e-05)
(0 1 -0.000129539)
(0 1 -5.35916e-06)
(0 1 0.00058542)
(0 1 3.35481e-07)
(0 1 -0.000181179)
(0 1 -0.000469646)
(0 1 -2.78705e-05)
(0 1 -0.000176898)
(0 1 6.18164e-07)
(0 1 2.79435e-05)
(0 1 0.000227455)
(0 1 -1.66379e-06)
(0 1 6.11066e-07)
(0 1 0.000145679)
(0 1 1.14123e-05)
(0 1 0.000249913)
(0 1 -8.72613e-05)
(0 0.999918 0.0127771)
(0 1 -7.04365e-07)
(0 1 4.65012e-05)
(0 1 -2.72382e-07)
(0 1 0.000827723)
(0 1 0.00097753)
(0 0.999999 0.00135758)
(0 1 -0.000188595)
(0 1 4.75682e-05)
(0 1 -1.14709e-06)
(0 1 -0.000106487)
(0 1 0.00026702)
(0 1 5.65903e-07)
(0 1 -0.00017414)
(0 1 0.000243973)
(0 1 0.000233159)
(0 1 3.6401e-05)
(0 1 3.50149e-06)
(0 1 9.06376e-06)
(0 1 -1.40149e-05)
(0 1 0.000104696)
(0 0.999999 -0.0017233)
(0 1 3.4812e-06)
(0 1 1.98817e-05)
(0 1 0.000203377)
(0 1 -6.86109e-05)
(0 1 -1.60143e-05)
(0 1 -7.12215e-07)
(0 1 -1.30671e-06)
(0 1 -6.04816e-05)
(0 1 2.97324e-05)
(0 1 -5.52455e-07)
(0 1 0.000110345)
(0 1 0.000312787)
(0 1 -5.6473e-07)
(0 1 -1.09925e-05)
(0 1 1.40193e-06)
(0 1 -7.75135e-05)
(0 1 -0.000411179)
(0 1 -8.83542e-06)
(0 1 -2.15826e-08)
(0 1 1.18946e-05)
(0 1 7.88774e-06)
(0 1 -6.07216e-07)
(0 1 -2.19662e-05)
(0 1 -9.45508e-05)
(0 1 -0.000182302)
(0 1 3.16155e-05)
(0 0.999999 0.00144189)
(0 1 -3.35623e-05)
(0 1 0.00018094)
(0 1 2.7154e-05)
(0 1 -3.79405e-05)
(0 1 3.2299e-05)
(0 1 -6.66565e-05)
(0 1 -0.000152328)
(0 1 3.48548e-06)
(0 1 1.65157e-05)
(0 1 -3.40321e-05)
(0 1 9.24591e-05)
(0 1 -3.21713e-06)
(0 1 -2.55346e-06)
(0 1 -0.000123569)
(0 1 -1.35343e-05)
(0 1 8.27032e-05)
(0 1 -5.73025e-06)
(0 1 0.000103538)
(0 1 -0.000134625)
(0 1 -4.26696e-05)
(0 1 -1.82881e-05)
(0 1 6.14549e-05)
(0 1 -1.87092e-05)
(0 1 -0.000101587)
(0 1 2.30951e-07)
(0 1 -4.12647e-06)
(0 1 2.60202e-06)
(0 1 1.56972e-05)
(0 1 0.000119023)
(0 1 -3.09888e-08)
(0 1 2.04263e-05)
(0 1 0.000821411)
(0 0.999997 0.00258619)
(0 1 -0.000156617)
(0 1 0.000622251)
(0 1 -0.00024302)
(0 1 -0.000623101)
(0 1 0.000155626)
(0 1 -2.05469e-05)
(0 1 -8.17252e-05)
(0 1 -2.99611e-05)
(0 1 1.86408e-05)
(0 1 -3.71391e-05)
(0 1 -4.32694e-06)
(0 1 -3.41881e-07)
(0 1 0.000130551)
(0 1 1.26123e-05)
(0 1 -1.64181e-06)
(0 1 -9.58213e-06)
(0 1 -4.62699e-05)
(0 1 -1.39257e-06)
(0 1 3.82072e-05)
(0 1 2.48878e-06)
(0 1 2.93755e-06)
(0 1 -1.08381e-05)
(0 1 -5.54823e-07)
(0 1 6.23117e-06)
(0 1 -2.40342e-07)
(0 1 2.0935e-07)
(0 1 2.80856e-05)
(0 1 -9.52333e-06)
(0 1 8.10956e-06)
(0 0.999999 -0.00108611)
(0 1 -0.000388331)
(0 1 -3.39156e-06)
(0 1 0.0002742)
(0 1 9.68493e-05)
(0 1 1.31262e-05)
(0 1 -0.000784297)
(0 1 -1.63074e-06)
(0 1 0.000211307)
(0 1 -3.62374e-05)
(0 1 2.1178e-05)
(0 1 -0.000126631)
(0 1 2.65405e-05)
(0 1 -0.000224429)
(0 1 0.000135737)
(0 1 -0.000331855)
(0 1 -0.000134179)
(0 1 -2.89853e-06)
(0 1 -8.2733e-06)
(0 1 -0.000131512)
(0 1 -0.000387267)
(0 1 0.000129406)
(0 1 -5.67751e-06)
(0 1 5.75336e-06)
(0 1 -5.30176e-05)
(0 1 5.93104e-05)
(0 1 -8.68011e-07)
(0 1 2.14741e-05)
(0 1 -4.79392e-06)
(0 1 0.000813058)
(0 1 -6.51965e-07)
(0 1 3.91774e-07)
(0 1 4.38893e-08)
(0 1 -2.85944e-05)
(0 1 -6.38361e-07)
(0 1 6.47039e-06)
(0 1 1.75206e-06)
(0 1 -1.14437e-06)
(0 1 6.37428e-06)
(0 1 -2.08236e-05)
(0 1 8.12062e-05)
(0 1 -6.0667e-05)
(0 1 -3.2037e-05)
(0 1 -4.9598e-05)
(0 1 6.70024e-07)
(0 1 -1.13874e-06)
(0 1 1.69473e-06)
(0 1 -0.00036795)
(0 1 -0.000101434)
(0 1 2.29462e-05)
(0 1 -7.97939e-06)
(0 1 -0.000195472)
(0 1 -5.23191e-05)
(0 1 4.1081e-05)
(0 1 -0.000167642)
(0 1 9.26774e-05)
(0 1 0.000184722)
(0 1 -8.39215e-05)
(0 1 -0.000129278)
(0 1 -6.89034e-06)
(0 1 1.59634e-07)
(0 1 -2.19956e-05)
(0 1 7.16868e-05)
(0 1 -6.48826e-08)
(0 1 7.55716e-07)
(0 1 4.7871e-06)
(0 1 0.000225139)
(0 1 -4.63104e-06)
(0 1 -1.88542e-05)
(0 1 4.61968e-06)
(0 1 -8.19026e-06)
(0 1 -4.05613e-05)
(0 1 -1.51773e-06)
(0 1 -3.66605e-05)
(0 1 9.7354e-08)
(0 1 -5.48689e-05)
(0 1 8.95881e-06)
(0 1 -1.10034e-07)
(0 1 2.08025e-06)
(0 1 8.07491e-05)
(0 1 9.76904e-06)
(0 1 6.956e-06)
(0 1 -3.15713e-06)
(0 1 0.000408612)
(0 1 1.04172e-06)
(0 1 0.000262092)
(0 1 -0.000164336)
(0 1 -8.42596e-05)
(0 1 -0.000107938)
(0 1 -6.30961e-05)
(0 1 -4.37357e-05)
(0 1 0.000177264)
(0 1 -2.7027e-06)
(0 1 -0.000895566)
(0 1 -0.000230184)
(0 1 4.77282e-05)
(0 1 3.97913e-05)
(0 1 -3.48992e-05)
(0 1 7.21246e-05)
(0 1 0.000108923)
(0 1 -1.58913e-06)
(0 1 -5.13656e-06)
(0 1 9.62978e-06)
(0 1 8.39393e-05)
(0 1 -4.76851e-05)
(0 1 -5.11233e-05)
(0 1 -3.47614e-05)
(0 1 -1.9832e-05)
(0 1 -1.24221e-06)
(0 1 9.67087e-05)
(0 1 -1.43519e-06)
(0 1 5.63131e-06)
(0 1 1.64555e-05)
(0 1 -9.86619e-07)
(0 1 -3.34349e-05)
(0 1 -1.13231e-07)
(0 1 -1.45625e-05)
(0 1 -5.21013e-05)
(0 1 3.94208e-05)
(0 1 5.54994e-05)
(0 1 0.000953782)
(0 0.999998 0.00195088)
(0 0.999994 -0.00356648)
(0 1 0.000456502)
(0 1 -0.00035845)
(0 1 9.70238e-05)
(0 1 0.000391531)
(0 1 -0.000137497)
(0 1 0.000132951)
(0 1 -5.65149e-05)
(0 1 -0.000260185)
(0 1 -8.34651e-05)
(0 1 -9.08949e-05)
(0 1 0.000334213)
(0 1 -8.50155e-07)
(0 1 6.9047e-06)
(0 1 -1.51648e-08)
(0 1 -4.78691e-05)
(0 1 0.000616847)
(0 1 7.85306e-05)
(0 1 4.90956e-05)
(0 1 3.40287e-08)
(0 1 0.000215121)
(0 0.999999 -0.00145993)
(0 1 0.000217478)
(0 1 1.62114e-05)
(0 1 1.93512e-05)
(0 1 -2.14702e-07)
(0 1 -7.83237e-06)
(0 1 -5.08258e-05)
(0 1 -1.31285e-06)
(0 1 4.16923e-06)
(0 1 2.94709e-07)
(0 1 -7.86042e-06)
(0 1 -8.15026e-05)
(0 1 -0.000176685)
(0 1 -1.92681e-05)
(0 1 1.37785e-05)
(0 1 -0.000153571)
(0 1 -6.26872e-05)
(0 1 -6.72762e-06)
(0 1 2.11346e-08)
(0 1 0.000356236)
(0 1 3.57544e-07)
(0 1 -1.80076e-06)
(0 1 7.92779e-05)
(0 1 3.4027e-05)
(0 1 -9.80702e-05)
(0 1 -5.72853e-05)
(0 1 -0.000469897)
(0 1 2.98094e-06)
(0 1 -0.00029896)
(0 1 -8.92981e-05)
(0 1 1.24811e-05)
(0 1 -1.64715e-05)
(0 1 1.95669e-05)
(0 1 -1.92688e-05)
(0 1 -3.03785e-06)
(0 1 2.03884e-06)
(0 1 -6.5583e-05)
(0 1 -5.2519e-07)
(0 1 -3.93932e-07)
(0 1 -3.59093e-06)
(0 1 -1.56272e-07)
(0 1 1.24305e-05)
(0 1 2.37549e-05)
(0 1 -8.34204e-06)
(0 0.999998 0.00191236)
(0 1 -1.79701e-05)
(0 1 -0.000826379)
(0 1 -7.06908e-06)
(0 1 -2.00311e-07)
(0 1 -0.000500361)
(0 1 -1.6377e-05)
(0 1 -1.05386e-06)
(0 1 1.07641e-06)
(0 1 4.42726e-05)
(0 1 0.000140441)
(0 1 4.15662e-06)
(0 1 -0.000163644)
(0 1 4.45211e-05)
(0 1 -0.000402991)
(0 1 4.57069e-06)
(0 1 -0.000157064)
(0 1 -3.07831e-05)
(0 1 6.7443e-06)
(0 1 -3.54768e-05)
(0 1 -0.000184794)
(0 1 -0.000409352)
(0 1 1.26935e-06)
(0 1 8.53816e-06)
(0 1 -6.12957e-06)
(0 1 -7.74462e-05)
(0 1 -4.65167e-05)
(0 1 -1.03466e-05)
(0 1 8.55988e-05)
(0 1 7.20067e-06)
(0 1 -9.29102e-06)
(0 1 1.05056e-05)
(0 1 -9.80612e-08)
(0 1 -1.99638e-06)
(0 1 -2.78093e-06)
(0 1 -0.000152461)
(0 1 1.41075e-06)
(0 0.999999 0.00141146)
(0 0.999998 -0.00201966)
(0 1 0.000478831)
(0 1 -3.58485e-06)
(0 1 0.000265328)
(0 1 6.73696e-05)
(0 1 7.67224e-05)
(0 1 -3.03898e-05)
(0 1 -9.5701e-07)
(0 1 -0.000136499)
(0 1 -4.11915e-05)
(0 1 -2.76417e-05)
(0 1 1.07651e-06)
(0 1 1.26319e-05)
(0 1 1.41061e-06)
(0 1 -7.82079e-06)
(0 1 2.68425e-06)
(0 1 -5.24248e-05)
(0 1 8.482e-05)
(0 1 -0.000186834)
(0 1 5.21795e-06)
(0 1 0.000106338)
(0 1 -8.48013e-07)
(0 1 -0.000203023)
(0 1 8.29192e-05)
(0 1 0.000222933)
(0 1 -8.54766e-06)
(0 1 -3.50744e-05)
(0 1 4.36214e-07)
(0 1 4.21316e-07)
(0 1 7.57439e-07)
(0 1 0.000133509)
(0 1 5.41631e-08)
(0 1 -1.77474e-05)
(0 1 1.85366e-06)
(0 1 -1.82873e-06)
(0 1 3.99021e-07)
(0 1 2.06121e-06)
(0 1 -1.17544e-06)
(0 1 -2.00004e-05)
(0 1 1.50469e-05)
(0 1 -2.5924e-06)
(0 1 -2.04625e-06)
(0 1 -1.21235e-05)
(0 1 3.97626e-07)
(0 1 0.000477664)
(0 1 -2.11948e-05)
(0 1 1.40216e-06)
(0 1 -3.89568e-05)
(0 1 -4.07344e-06)
(0 1 -2.72061e-07)
(0 1 -6.54414e-07)
(0 1 2.76334e-06)
(0 1 3.69264e-05)
(0 1 9.84856e-05)
(0 1 5.55927e-05)
(0 1 -4.57931e-05)
(0 0.999998 -0.00176524)
(0 1 -2.71649e-06)
(0 1 -1.64929e-06)
(0 1 -5.7655e-06)
(0 1 -6.00985e-07)
(0 1 1.13185e-06)
(0 1 5.56882e-06)
(0 1 -8.72547e-07)
(0 1 -0.000178491)
(0 1 -2.03774e-06)
(0 1 -6.66456e-07)
(0 1 3.38408e-05)
(0 1 -6.92297e-05)
(0 1 -1.70187e-06)
(0 1 -2.66767e-05)
(0 1 -6.59443e-07)
(0 1 1.47584e-06)
(0 1 -2.93351e-07)
(0 1 -4.10207e-06)
(0 1 -7.64012e-06)
(0 1 2.15724e-05)
(0 1 -3.41219e-05)
(0 1 -4.88489e-07)
(0 1 -3.78863e-05)
(0 1 6.29103e-06)
(0 1 -2.52514e-06)
(0 1 -6.20458e-07)
(0 1 -1.97306e-06)
(0 1 -5.6964e-07)
(0 1 3.66864e-05)
(0 1 -2.88134e-05)
(0 1 -8.99087e-07)
(0 1 -6.34444e-05)
(0 1 1.33113e-07)
(0 1 -1.78399e-07)
(0 1 -2.18861e-05)
(0 1 0.000338437)
(0 1 5.103e-06)
(0 1 6.97415e-06)
(0 1 9.64017e-06)
(0 1 9.19248e-06)
(0 1 -2.26609e-06)
(0 1 -1.10365e-06)
(0 1 7.1389e-05)
(0 1 1.72548e-06)
(0 1 -2.2779e-05)
(0 1 -3.3666e-07)
(0 1 5.11421e-06)
(0 1 5.23941e-06)
(0 1 -0.000111097)
(0 1 0.000123064)
(0 1 -1.23422e-05)
(0 1 -4.12001e-08)
(0 1 0.000315216)
(0 1 -4.46962e-08)
(0 1 2.13128e-07)
(0 1 -2.18978e-05)
(0 1 -4.73742e-05)
(0 1 4.26488e-07)
(0 1 1.42182e-06)
(0 1 2.5543e-07)
(0 1 -1.97329e-06)
(0 1 -7.03599e-06)
(0 1 2.53232e-06)
(0 1 -2.20775e-05)
(0 1 -3.6081e-06)
(0 1 -1.05145e-06)
(0 1 3.33587e-06)
(0 1 -1.80199e-06)
(0 1 0.000748791)
(0 1 4.07846e-07)
(0 1 1.47572e-06)
(0 1 5.17267e-07)
(0 1 -5.86098e-07)
(0 1 -9.17735e-08)
(0 1 6.78679e-05)
(0 1 -8.95265e-07)
(0 1 -6.71838e-06)
(0 1 -4.77437e-06)
(0 1 1.2732e-05)
(0 1 -0.000245921)
(0 1 6.81206e-07)
(0 1 -5.70908e-05)
(0 1 -3.43028e-06)
(0 1 4.5027e-07)
(0 1 -9.86449e-06)
(0 1 -4.77808e-06)
(0 1 5.86173e-06)
(0 1 -2.96057e-08)
(0 1 -0.000109182)
(0 1 -4.12253e-05)
(0 1 3.14578e-09)
(0 1 -7.6099e-06)
(0 1 -0.000146817)
(0 1 5.2319e-08)
(0 1 9.86948e-05)
(0 1 -1.55405e-05)
(0 1 -3.87908e-05)
(0 1 1.75433e-06)
(0 1 -1.02047e-06)
(0 1 5.03135e-07)
(0 1 -5.27868e-07)
(0 1 -3.61245e-06)
(0 1 6.25103e-05)
(0 1 2.46545e-06)
(0 1 -1.2758e-06)
(0 1 -6.74756e-07)
(0 1 -1.3279e-07)
(0 1 -7.72318e-06)
(0 1 -6.88179e-06)
(0 1 -8.54077e-07)
(0 1 3.52203e-06)
(0 1 -3.07719e-19)
(0 1 6.02263e-05)
(0 1 1.22273e-05)
(0 1 2.24981e-06)
(0 1 -1.4124e-06)
(0 1 5.07883e-06)
(0 1 -4.6337e-06)
(0 1 7.57757e-07)
(0 1 -7.60964e-06)
(0 1 3.30566e-05)
(0 1 8.42717e-06)
(0 1 -7.31992e-05)
(0 1 -8.20721e-05)
(0 1 3.47685e-06)
(0 1 1.61012e-07)
(0 1 -1.90941e-06)
(0 1 0.000167772)
(0 1 2.72245e-06)
(0 1 1.01245e-06)
(0 1 -9.92919e-05)
(0 1 -2.46724e-06)
(0 1 1.05377e-05)
(0 1 -6.30935e-05)
(0 1 0.000157306)
(0 1 9.03153e-06)
(0 1 -4.08466e-09)
(0 1 2.09602e-05)
(0 1 2.17043e-05)
(0 1 0.00034291)
(0 1 1.36754e-05)
(0 1 -5.41451e-08)
(0 1 1.72267e-06)
(0 1 0.000276323)
(0 1 -1.43896e-05)
(0 1 -8.83365e-06)
(0 1 -3.73401e-06)
(0 1 -1.64073e-05)
(0 1 -8.27815e-18)
(0 1 1.33096e-07)
(0 1 -0.000101053)
(0 1 -0.000151898)
(0 1 1.91411e-06)
(0 1 3.77566e-06)
(0 1 -1.74447e-05)
(0 1 -3.60426e-07)
(0 1 -5.398e-05)
(0 1 3.16582e-05)
(0 1 1.52691e-05)
(0 1 -5.7663e-05)
(0 1 -0.000622264)
(0 1 -9.93912e-06)
(0 1 6.63685e-06)
(0 1 6.81002e-07)
(0 1 -3.12621e-05)
(0 1 -6.49508e-05)
(0 1 -0.00046878)
(0 1 1.32388e-05)
(0 1 -9.59902e-06)
(0 1 2.54214e-06)
(0 1 1.4572e-05)
(0 1 -4.55273e-05)
(0 1 1.31472e-05)
(0 1 9.39883e-07)
(0 1 1.70775e-05)
(0 1 -7.66573e-05)
(0 1 2.74323e-05)
(0 1 3.01648e-05)
(0 1 -5.66247e-06)
(0 1 -3.4079e-06)
(0 1 1.36886e-05)
(0 1 -5.84332e-07)
(0 1 2.37508e-09)
(0 1 3.95438e-05)
(0 1 4.37916e-05)
(0 1 1.40408e-05)
(0 1 -7.12827e-07)
(0 1 -2.99007e-06)
(0 0.999997 0.00240037)
(0 1 -4.03439e-06)
(0 1 -6.88993e-06)
(0 1 -1.60768e-06)
(0 1 2.54885e-06)
(0 1 -7.99621e-06)
(0 1 0.000125111)
(0 1 -8.2675e-06)
(0 1 -3.78077e-07)
(0 1 4.64513e-05)
(0 1 -1.5688e-06)
(0 1 2.72837e-06)
(0 1 -1.12982e-06)
(0 1 -4.14075e-06)
(0 1 -8.51557e-07)