/*--------------------------------*- C++ -*----------------------------------*\
| =========                 |                                                 |
| \\      /  F ield         | OpenFOAM: The Open Source CFD Toolbox           |
|  \\    /   O peration     | Version:  1.7.0                                 |
|   \\  /    A nd           | Web:      www.OpenFOAM.com                      |
|    \\/     M anipulation  |                                                 |
\*---------------------------------------------------------------------------*/
FoamFile
{
    version     2.0;
    format      ascii;
    class       scalarField;
    location    "0.33/lagrangian/defaultCloud";
    object      T;
}
// * * * * * * * * * * * * * * * * * * * * * * * * * * * * * * * * * * * * * //


29889
(
276.975
275.741
277.319
277.707
276.186
275.329
275.976
277.207
274.391
274.847
277.413
275.352
276.309
275.93
275.884
275.267
275.557
274.262
275.176
275.175
275.563
274.688
275.401
275.558
275.987
276.161
276.767
275.849
274.837
275.957
275.966
275.297
277.56
275.314
274.911
274.68
275.504
275.514
274.967
276.061
275.1
274.114
273.841
276.256
274.841
274.914
277.245
275.308
275.556
274.808
275.325
275.719
275.576
277.249
274.925
274.735
275.037
277.073
274.398
273.093
275.337
275.368
274.976
276.699
274.967
275.423
275.686
274.471
274.861
274.527
275.674
275.266
274.482
275.967
275.041
275.301
275.118
275.332
274.368
276.944
275.703
275.813
275.262
274.993
274.995
274.971
276.188
275.262
274.48
275.883
275.685
274.799
275.181
274.599
276.101
276.36
275.498
274.036
275.742
276.709
275.702
274.931
274.257
274.95
276.169
277.181
274.197
275.624
275.561
275.291
276.496
275.122
273.739
276.21
276.21
275.23
274.097
275.292
274.829
276.747
273.866
275.068
274.973
274.931
277.326
276.447
275.155
275.231
275.435
275.123
274.653
275.628
274.273
274.304
275.322
275.053
274.343
277.737
275.717
274.984
275.064
274.64
274.338
275.514
276.71
275.096
274.387
277.595
273.351
275.82
278.085
274.893
275.533
274.802
276.102
274.83
274.549
274.286
275.967
275.085
276.178
276.104
274.225
274.847
274.449
273.442
276.192
274.911
274.612
275.573
275.028
275.143
276.239
275.021
274.537
273.846
274.043
274.987
274.408
275.408
275.072
273.987
274.873
275.59
275.138
274.616
275.026
275.45
273.763
274.803
274.892
276.348
275.057
275.383
274.964
275.536
274.876
275.125
275.511
276.495
274.959
275.14
274.861
275.431
276.228
274.306
274.385
274.887
274.374
275.035
274.336
274.044
275.554
274.292
274.508
275.448
274.249
273.931
275.048
274.227
274.694
274.906
275.479
274.535
273.795
276.148
275.992
274.36
274.671
275.317
274.354
274.142
276.061
274.885
274.835
274.324
275.209
274.647
274.829
274.752
275.692
274.351
274.75
274.1
275.806
276.148
274.829
273.967
273.96
274.968
273.672
275.495
275.118
274.906
273.899
276.52
273.592
274.108
275.904
274.525
274.185
274.566
273.376
274.183
275.862
273.919
275.424
275.295
275.34
274.105
274.542
274.606
274.23
274.824
273.791
275.007
273.744
274.163
273.834
273.606
276.063
275.704
274.939
274.09
274.417
275.743
274.937
274.358
274.429
273.762
274.725
274.063
273.771
272.714
274.587
274.412
275.113
274.078
273.321
274.425
275.85
275.424
274.566
273.864
274.802
275.941
275.096
274.199
273.579
274.035
275.555
273.703
274.277
275.381
272.627
275.75
276.263
274.363
275.887
276.342
274.953
274.387
273.786
274.978
272.687
276.216
275.222
276.183
272.844
275.476
275.601
273.844
276.474
274.008
275.097
274.393
273.385
276.26
275.443
273.921
274.835
273.518
276.151
274.455
272.868
275.324
274.022
274.166
273.931
276.094
275.055
273.113
275.505
273.669
273.271
273.052
273.507
273.89
273.764
273.393
273.244
273.303
276.443
274.629
276.122
273.147
275.743
274.684
273.649
274.524
275.353
274.032
272.537
274.094
273.585
273.846
272.792
274.936
272.463
274.687
273.336
273.704
272.273
273.71
273.074
273.364
272.349
272.052
272.79
273.552
273.484
277.489
274.104
273.301
273.429
274.94
273.674
272.625
273.077
275.384
272.864
273.558
273.188
272.036
274.789
274.315
273.56
274.98
271.951
272.259
274.006
272.063
276.389
276.268
274.221
274.186
272.3
272.254
275.081
272.217
274.013
272.741
273.707
273.598
273.715
274.627
273.289
272.461
273.743
274.939
271.817
273.86
276.155
272.347
274.688
273.927
273.7
272.797
273.452
273.518
275.273
275.028
275.512
272.765
273.236
276.329
272.549
271.744
273.602
274.829
272.175
271.725
272.367
272.699
273.82
271.848
271.818
272.12
273.87
276.418
272.302
273.618
273.723
273.116
275.464
273.241
273.285
273.141
274.371
274.592
274.439
273.891
272.975
275.6
272.981
274.758
272.161
272.629
273.992
275.255
272.398
273.757
274.762
274.019
276.726
273.784
276.144
272.149
272.507
273.481
273.188
273.902
273.993
277.181
273.349
273.128
272.68
273.029
273.443
275.987
273.055
273.783
272.508
272.088
272.938
273.293
272.431
273.709
272.437
276.661
274.283
273.933
272.673
271.836
271.794
274.299
274.972
271.816
273.759
272.316
277.283
273.701
274.241
274.533
274.333
271.774
274.613
272.512
274.907
273.358
273.879
274.005
272.992
277.613
271.901
271.873
273.883
274.102
274.239
274.045
273.838
274.56
273.525
273.34
274.381
272.708
273.105
272.781
275.072
272.626
272.326
272.654
275.087
275.767
277.268
275.24
275.013
274.504
274.16
273.065
275.258
274.939
273.935
273.78
274.611
272.871
276.828
271.688
275.72
273.726
275.705
272.439
272.141
273.205
274.691
274.055
274.615
275.023
274.117
273.626
275.847
273.21
273.51
272.687
273.195
272.698
273.498
274.709
273.472
273.156
275.554
274.917
273.44
273.259
272.375
274.788
274.026
273.923
272.821
277.266
272.513
273.56
274.856
273.109
275.62
272.371
275.081
273.429
273.214
271.909
273.768
276.076
273.7
273.034
273.716
274.746
276.32
275.411
275.497
274.132
273.73
271.842
272.973
273.596
274.436
274.283
274.258
274.211
274.348
276.995
274.511
275.426
276.031
272.034
271.838
274.314
275.108
273.992
276.457
274.943
273.394
273.787
273.305
272.734
272.184
272.396
273.468
275.147
276.586
274.463
273.285
276.313
272.059
276.814
273.304
272.514
273.479
274.453
275.24
275.907
277.556
275.521
274.138
273.018
274.132
277.697
273.15
273.795
273.154
273.149
273.321
274.413
272.205
272.645
275.187
275.481
271.888
273.195
274.127
275.281
271.901
272.389
273.804
275.584
276.549
275.229
276.249
273.787
275.899
272.473
273.897
273.316
273.632
274.63
273.047
271.925
272.466
272.236
272.515
272.449
272.852
272.211
274.948
274.089
273.811
275.26
275.052
273.872
276.782
274.044
274.038
274.219
272.676
274.54
273.437
273.491
274.502
272.138
273.136
273.045
273.834
274.328
276.223
274.719
275.755
274.685
273.191
273.831
273.183
275.387
274.437
274.348
272.194
276.117
273.34
273.867
273.351
276.256
274.539
272.465
275.536
276.388
271.822
272.342
273.62
275.683
273.035
272.604
273.309
273.889
274.054
276.414
275.179
274.599
273.732
273.624
272.311
274.139
273.472
274.211
274.1
275.405
277.336
273.18
275.511
275.547
278.925
273.979
275.002
276.027
274.837
271.817
272.283
277.346
274.752
273.149
272.005
273.646
275.653
273.557
273.249
272.821
275.201
273.806
274.652
275.874
274.731
273.101
271.814
276.434
273.906
275.06
273.524
274.17
274.477
272.657
273.128
275.772
274.082
272.862
276.976
273.318
273.708
274.836
274.942
272.344
271.825
276.072
275.063
275.908
275.111
275.615
272.042
273.747
277.583
275.893
272.484
274.136
275.247
273.576
274.563
273.462
274.23
274.959
274.655
276.179
275.226
274.323
272.542
272.339
275.16
273.545
273.61
273.945
274.318
277.27
276.982
275.999
276.939
274.715
277.767
271.948
273.077
274.298
276.004
271.874
277.985
275.108
274.904
273.311
272.675
274.858
272.438
275.774
273.358
276.661
275.347
273.79
276.941
275.047
273.643
275.731
275.398
276.091
275.051
277.262
275.93
275.076
275.336
274.359
272.346
271.958
273.844
274.162
276.221
277.695
274.303
274.702
274.18
272.008
275.909
275.332
275.871
274.763
273.584
271.921
275.897
274.659
275.958
273.575
274.587
274.8
271.895
272.9
274.474
274.757
275.358
273.44
275.743
274.37
274.607
275.465
276.606
274.763
274.035
273.777
274.097
277.513
277.715
277.751
276.057
275.885
276.147
274.824
275.116
276.672
273.564
272.841
273.811
272.609
273.288
277.152
271.843
275.576
276.518
277.66
274.876
276.511
273.62
274.89
273.322
273.247
271.911
275.69
275.296
277.724
276.372
273.141
272.076
272.454
276.524
274.131
275.529
273.909
274.003
274.737
275.534
273.717
277.165
273.766
272.583
278.703
272.323
276.203
274.593
272.598
274.45
275.982
271.983
274.572
274.266
272.887
271.965
272.059
271.886
274.411
276.473
276.492
275.758
276.61
273.922
273.158
276.06
276.083
277.221
274.933
273.761
276.731
274.006
272.669
276.742
277.002
277.864
277.338
273.325
276.961
271.773
277.244
276.691
275.695
275.512
271.863
275.419
277.156
276.419
274.615
277.368
272.607
274.657
274.422
274.145
276.702
273.443
274.795
275.942
274.201
275.921
273.414
276.998
275.423
274.938
276.95
276.96
276.955
274.895
276.252
273.232
276.886
276.309
276.591
272.774
278.068
277.158
277.187
274.662
276.322
274.436
273.085
276.628
276.497
274.93
277.396
274.693
272.434
276.495
273.026
276.412
274.576
274.245
272.226
273.742
272.968
277.588
278.053
275.196
273.06
274.856
276.697
273.846
275.203
273.921
276.947
273.303
276.039
276.222
273.28
275.611
275.318
272.327
275.993
271.921
275.903
277.393
276.932
276.593
274.465
273.912
278.621
277.169
273.634
273.388
276.755
277.756
275.219
276.137
276.413
277.205
277.279
276.355
276.097
277.362
276.973
274.84
277.515
276.574
277.513
274.754
277.255
278.188
273.398
276.197
277.504
278.175
277.681
278.906
275.848
278.734
275.694
276.406
272.808
276.938
273.789
277.711
277.115
275.186
276.798
275.058
277.058
276.159
277.709
277.384
276.341
276.832
277.222
277.072
273.23
277.29
275.686
276.887
276.554
276.184
275.943
276.342
273.514
277.312
276.752
273.136
277.621
274.754
277.138
275.173
277.515
277.16
278.616
275.809
275.004
278.597
278.256
278.401
277.568
272.688
276.309
276.957
277.184
277.004
272.159
277.447
277.531
276.844
278.062
275.196
274.994
278.22
276.985
277.275
279.124
278.391
274.229
277.265
272.544
277.272
272.061
273.553
277.264
277.173
272.182
276.903
278.171
277.713
276.439
278.744
276.968
278.063
272.902
275.107
277.272
275.631
277.489
276.419
276.756
276.394
274.367
278.399
277.343
277.814
277.296
276.119
276.924
276.245
277.745
277.956
278.432
274.246
278.536
276.782
278.208
278.237
277.622
278.406
277.369
276.618
277.574
274.11
274.699
277.979
277.188
277.632
277.951
277.55
278.196
277.673
275.651
277.729
278.431
277.925
277.288
272.285
277.97
277.086
278.264
276.852
275.83
277.631
278.283
278.548
273.405
279.229
277.33
279.045
277.894
277.976
277.241
276.903
277.965
278.967
277.687
278.419
276.236
275.272
278.941
275.378
278.7
278.882
274.098
277.634
276.351
276.954
277.271
278.187
277.207
278.195
278.236
277.662
278.044
278.838
277.925
271.92
278.161
276.508
275.86
279.249
278.962
278.266
276.647
277.1
277.246
277.806
277.611
278.621
278.246
275.885
278.788
275.08
278.862
278.744
277.538
278.876
277.131
278.673
279.286
278.039
277.005
278.787
279.119
279.177
278.176
279.421
278.482
274.392
279.588
279.267
277.798
279.285
275.263
279.396
276.252
278.772
278.439
278.134
278.466
278.688
277.565
278.673
278.451
278.937
278.219
279.356
278.949
279.321
276.895
277.041
279.547
277.619
279.542
278.512
278.985
279.208
279.14
279.293
279.381
279.343
279.349
278.582
279.049
278.751
275.195
279.57
279.466
279.19
279.185
279.791
279.113
276.606
278.997
279.266
277.74
277.677
279.312
279.646
278.746
277.861
279.329
279.236
278.747
279.632
279.174
279.383
279.337
279.132
279.339
279.872
279.311
279.466
279.316
279.739
278.593
279.511
279.188
279.798
278.707
278.409
279.743
279.413
279.695
279.279
279.492
278.868
279.738
279.845
279.794
279.597
278.582
279.4
279.592
279.605
279.272
279.523
279.24
279.682
279.768
279.721
279.692
279.893
279.824
279.543
277.464
279.771
279.144
279.902
279.622
279.709
279.886
279.033
279.858
279.823
279.912
279.958
279.842
279.899
279.981
279.961
279.925
279.981
279.935
278.432
278.688
278.777
278.836
278.753
278.462
278.553
278.367
278.796
278.51
278.31
277.739
278.521
277.708
278.305
278.75
278.258
278.408
278.494
278.252
278.924
278.805
278.681
277.685
278.152
278.528
278.462
278.179
277.597
277.895
277.998
278.619
278.839
278.114
278.572
278.344
278.996
277.507
278.759
278.976
278.549
278.118
278.224
278.078
278.679
278.039
277.699
278.233
278.553
278.001
278.015
278.36
278.858
277.986
278.894
278.607
277.668
278.245
277.801
277.959
278.99
278.368
277.402
278.204
278.344
278.16
278.157
278.423
278.256
278.212
278.455
278.007
278.65
277.569
277.835
277.797
278.668
278.361
278.775
277.989
278.754
278.605
278.526
278.348
278.094
278.393
278.306
278.068
278.513
277.538
278.355
278.662
277.851
277.849
278.701
277.679
278.372
278.066
278.735
278.207
277.809
277.85
277.769
278.43
277.791
278.108
278.037
278.768
278.611
278.15
278.829
277.886
277.883
277.916
278.449
278.38
278.294
277.645
278.555
278.519
277.85
277.958
278.376
278.027
278.591
277.663
278.515
277.832
278.285
277.946
278.515
277.747
278.248
278.519
277.784
278.043
278.029
278.122
277.538
277.83
277.974
277.468
278.472
278.475
277.944
278.502
277.872
278.451
278.307
278.076
278.15
278.5
277.655
277.459
278.589
277.726
278.399
277.892
277.798
278.057
277.794
277.598
278.043
278.325
278.804
278.618
277.617
278.548
277.588
278.362
277.546
277.638
277.731
277.646
278.189
277.914
277.784
278.812
278.152
277.609
278.151
277.637
277.613
278.056
278.168
277.79
277.545
277.678
278.048
277.633
278.303
277.273
278.448
278.047
278.125
277.694
277.743
277.95
278.296
277.904
277.806
278.272
277.536
278.272
277.462
279.023
278.237
278.189
278.362
277.69
278.024
277.628
277.84
278.747
277.539
278.039
278.499
277.792
278.015
277.764
278.027
278.093
278.485
277.782
278.229
277.616
278.425
277.866
277.83
277.644
277.839
277.546
277.715
277.619
278.243
277.72
278.519
278.002
277.897
278.142
277.884
277.65
277.776
277.608
278.119
278.241
277.47
278.341
277.542
277.953
277.788
278.097
277.623
277.784
278.028
278.129
278.487
277.99
277.875
277.794
277.966
278.02
277.461
278.257
277.752
277.671
278.12
277.773
277.815
277.591
278.306
277.982
278.285
277.508
277.983
277.817
278.224
278.136
277.616
277.322
278.167
277.636
277.773
278.471
277.741
278.119
278.129
277.927
278.039
277.679
277.798
278.175
277.538
278.496
277.684
277.773
278.175
278.121
278.265
277.807
277.923
277.516
277.89
277.881
277.87
277.775
277.857
277.908
277.842
278.24
277.842
277.66
278.519
277.735
277.435
277.461
277.736
277.8
277.972
277.919
277.683
278.345
277.615
277.573
277.387
277.829
277.531
277.897
277.466
277.66
278.134
277.778
278.316
277.717
278.65
277.613
278.733
277.877
277.6
278.001
278.021
277.997
277.571
277.562
278.08
277.659
277.625
278.111
278.505
277.955
278.024
277.588
277.962
278.034
277.577
277.952
277.748
278.156
277.857
277.912
277.747
277.824
277.461
277.785
278.149
277.268
277.698
277.595
278.773
277.546
277.651
277.94
277.912
277.892
278.198
277.957
277.652
277.546
277.829
277.978
277.994
278.074
277.678
278.018
277.697
277.351
277.63
277.669
278.223
278.053
277.85
278.397
277.491
277.989
278.197
277.735
278.36
277.632
277.672
277.83
277.534
277.473
278.08
277.719
278.03
278.021
277.959
278.145
277.373
277.785
277.968
278.061
277.776
277.545
277.74
277.79
277.417
277.883
278.896
277.863
278.178
278.614
277.883
278.069
277.737
278.495
277.436
277.642
278.023
277.58
277.526
277.413
277.984
278.124
277.781
278.298
278.207
277.834
277.989
277.817
277.824
277.999
277.449
278.161
277.474
278.475
277.891
277.576
277.863
278.037
277.706
278.657
278.295
277.597
277.809
277.834
277.766
277.752
277.577
277.523
277.427
277.601
277.514
277.888
277.569
278.208
278.436
278.484
277.995
277.881
277.365
277.363
277.737
277.881
277.559
277.666
277.605
278.894
277.914
278.261
277.72
277.637
277.74
278.013
277.876
277.523
277.586
277.452
277.842
277.402
277.396
278.041
277.671
277.777
277.914
277.774
277.539
277.975
277.613
278.294
278.372
277.525
278.062
278.018
277.8
278.107
278.255
278.366
278.602
277.768
277.663
278.142
278.126
277.876
277.975
277.838
277.215
277.514
277.559
277.938
277.716
277.544
278.394
277.559
277.824
278.543
277.491
277.951
277.546
277.539
277.479
277.533
277.732
277.656
277.537
277.592
278.24
278.163
278.426
277.534
277.559
277.588
277.536
277.455
277.754
277.307
277.679
277.794
277.426
277.409
277.552
278.08
277.742
277.618
277.605
277.827
277.407
277.635
278.07
277.667
277.589
277.807
277.95
277.862
277.268
277.48
277.389
277.552
278.718
278.664
277.355
277.493
277.649
278.232
277.777
277.519
277.675
277.492
277.955
277.881
277.577
277.799
277.257
277.541
277.915
277.824
277.51
277.448
277.582
277.699
278.199
277.449
277.424
277.553
277.947
277.644
277.691
278.113
277.546
277.585
277.452
277.167
277.469
277.545
277.528
277.369
277.63
277.737
277.957
278.856
277.62
277.513
277.705
277.995
277.669
277.452
277.476
277.037
277.704
278.01
277.738
277.783
277.779
277.673
277.362
277.598
277.8
277.484
277.903
277.933
277.363
277.635
277.623
277.717
278.005
277.713
277.626
277.866
277.785
277.803
277.507
277.59
277.469
277.602
277.349
277.439
277.857
277.993
277.995
277.526
277.34
277.492
277.265
277.251
277.384
277.671
277.864
277.497
277.476
277.966
277.338
277.397
277.526
277.434
277.607
278.511
277.342
277.516
277.415
277.599
277.901
277.917
277.335
277.464
277.813
277.974
277.399
277.549
277.376
277.563
277.533
277.523
277.819
277.323
277.72
277.599
277.142
277.972
277.71
277.662
277.468
277.256
277.621
277.497
277.693
277.363
277.482
277.525
277.841
277.567
277.694
277.684
277.462
277.651
277.456
277.501
277.661
277.883
277.921
277.895
277.399
277.578
277.433
277.332
278.266
277.542
277.666
277.514
277.509
278.211
277.675
277.497
277.308
277.622
277.357
277.321
277.345
277.963
277.791
277.719
278.133
278.574
277.438
277.474
277.498
277.803
277.417
277.255
277.335
277.501
277.342
277.35
277.668
278.042
278.405
277.432
277.168
277.387
277.259
277.697
277.81
277.583
277.697
277.296
277.665
277.412
277.326
277.579
277.595
277.755
277.717
277.87
277.336
277.783
277.837
277.629
277.81
277.637
277.355
277.362
277.371
277.427
278.56
277.569
277.195
277.307
277.557
277.251
277.681
277.331
277.339
277.408
277.584
277.617
277.196
277.687
277.493
277.606
277.713
277.885
277.94
277.412
277.433
277.417
277.548
277.59
277.674
277.707
277.371
277.391
277.492
277.293
277.59
277.321
277.662
277.846
277.79
278.37
278.386
277.392
277.788
277.165
277.176
277.505
277.388
277.494
277.365
277.264
277.646
277.364
277.311
277.641
277.395
277.528
277.475
277.555
277.44
277.632
277.389
277.515
277.343
277.672
277.49
277.616
277.432
277.895
277.523
277.287
277.144
277.213
277.495
277.094
277.562
277.604
277.695
277.266
277.204
277.226
277.319
277.508
277.046
277.585
277.754
277.825
278.536
278.28
277.293
277.452
277.598
277.682
277.663
277.611
277.176
277.144
277.649
277.341
277.179
277.442
277.296
277.463
277.469
277.378
277.433
277.352
277.743
277.562
277.524
278.323
277.894
277.769
278.413
277.906
277.458
277.137
277.338
277.419
277.628
277.577
277.348
277.976
277.206
277.372
277.588
277.325
277.176
277.563
278.385
277.29
277.439
277.169
277.365
277.296
277.591
277.164
277.866
277.597
277.216
277.197
277.266
277.393
277.094
276.939
277.603
277.354
277.64
277.312
277.346
277.256
277.481
277.398
277.538
277.071
277.798
277.13
277.442
277.529
277.29
277.355
277.466
277.086
277.461
277.371
277.486
277.468
277.449
277.447
277.493
277.787
278.015
278.712
277.464
277.631
277.302
277.278
277.521
277.228
277.272
277.836
277.16
277.272
277.292
277.166
276.969
277.017
277.311
277.497
277.481
277.43
277.355
277.164
277.143
276.908
277.189
277.559
277.507
277.973
277.338
277.241
277.507
277.365
277.286
277.519
277.753
277.287
277.341
277.389
277.063
277.767
277.397
277.442
277.588
278.204
277.015
277.216
277.395
277.206
277.343
277.392
277.545
277.537
278.453
277.589
277.318
277.19
277.317
277.22
277.295
277.289
277.384
277.427
277.497
277.231
278.255
277.526
277.324
277.274
277.107
277.385
276.766
277.453
277.443
277.65
277.28
277.436
278.295
277.159
277.213
277.386
277.482
277.119
277.275
277.199
277.032
277.539
277.438
277.266
277.684
277.193
277.408
277.213
277.047
277.12
277.064
277.526
277.265
277.652
277.892
278.523
278.346
278.869
278.155
278.081
277.763
278.245
278.118
277.729
277.785
278.737
277.846
277.625
278.007
278.36
277.785
278.097
277.923
277.829
277.24
278.106
277.765
277.974
276.437
276.595
276.97
277.014
276.501
276.992
276.872
277.173
276.928
275.396
277.213
276.36
277.359
277.093
276.241
277.366
276.684
277.369
276.95
276.615
276.463
276.717
276.766
276.433
277.475
276.936
276.229
277.089
277.239
276.639
276.367
277.416
277.098
277.415
277.652
276.888
276.791
276.839
276.396
276.924
276.628
276.992
276.922
277.644
275.872
276.518
277.236
276.551
276.222
276.557
277.42
276.85
276.66
275.355
276.879
276.955
277.2
276.956
276.435
277.454
275.883
276.582
276.932
277.129
276.702
276.533
276.427
276.965
276.843
275.505
276.649
275.905
276.903
276.987
276.869
276.48
277.067
276.105
276.748
275.624
276.489
275.767
277.362
276.221
276.222
276.559
276.415
276.25
275.851
277.016
276.38
275.889
277.281
275.403
276.568
275.645
277.041
275.656
276.478
276.488
274.764
275.683
275.872
275.781
277.114
276.089
275.185
276.055
275.63
277.33
276.569
275.504
276.351
275.313
276.791
275.742
276.654
275.996
276.024
277.1
276.42
275.692
277.005
275.729
275.964
275.684
277.053
275.116
275.918
276.256
277.398
276.4
276.479
277.592
275.724
277.18
276.273
276.541
277.145
276.195
276.075
275.71
275.613
276.395
276.049
275.918
275.963
277.222
275.822
275.616
275.798
277.458
276.668
277.023
276.624
276.066
276.376
275.581
275.147
276.559
276.913
275.591
275.671
276.903
275.024
276.115
275.852
276.425
277.085
276.037
276.325
275.58
276.302
275.296
277.292
277.2
277.4
275.606
277.191
276.092
275.625
275.613
276.171
276.018
276.022
276.774
275.725
276.278
276.118
275.351
275.912
275.716
275.88
276.541
275.136
276.046
275.759
274.986
276.336
275.067
275.245
276.677
275.353
276.796
275.482
275.312
275.995
275.197
276.092
275.991
274.828
277.61
277.062
274.7
277.031
275.604
276.794
275.299
276.377
275.673
276.379
275.915
275.205
275.829
275.194
275.73
274.527
275.912
275.291
275.975
276.364
274.787
275.706
275.028
275.349
274.854
274.929
275.395
276.312
275.14
275.564
276.328
275.126
275.233
275.345
275.242
276.543
274.292
274.997
275.848
275.346
274.409
276.13
276.297
276.392
275.066
275.449
277.86
276.684
275.365
276.724
276.296
275.697
274.584
275.587
276.257
275.147
275.917
277.104
277.189
275.079
276.241
275.962
275.896
276.47
275.134
276.428
275.082
276.415
274.372
276.284
275.944
274.963
275.723
274.878
276.315
274.995
275.575
275.896
276.157
276.429
275.099
275.385
275.445
277.398
275.915
275.899
275.021
275.815
275.866
274.93
275.342
275.348
275.57
276.152
275.115
275.049
275.346
275.64
276.349
277.038
276.01
276.108
276.689
275.17
274.125
275.27
275.912
275.139
275.273
275.438
275.141
275.5
275.571
275.89
275.462
274.633
274.949
275.803
277.097
274.645
275.428
275.989
275.545
275.939
274.859
275.075
275.139
276.19
275.218
276.326
277.009
275.843
276.646
274.589
274.46
275.815
275.973
276.2
275.364
275.104
275.1
275.572
275.418
276.611
274.649
275.388
275.373
274.921
275.255
274.911
275.345
275.547
275.526
275.431
275.359
275.581
275.093
275.98
275.188
277.071
276.392
276.676
276.964
275.55
274.872
274.232
275.964
274.919
274.797
275.953
274.94
274.566
275.546
275.391
275.595
276.86
276.536
277.449
276.18
275.914
275.792
275.823
276.363
274.867
274.31
275.999
275.438
274.774
275.394
276.194
275.386
275.742
276.021
275.124
275.116
276.254
275.398
274.662
275.631
274.127
276.124
275.211
274.981
274.834
274.752
275.302
275.814
275.702
274.817
275.481
275.548
274.902
275.335
275.879
277.839
276.207
275.916
275.571
274.761
275.369
275.485
275.252
274.231
275.358
274.311
274.237
275.573
275.196
275.508
275.448
275.231
277.162
276.018
275.113
276.402
276.336
275.039
274.347
275.868
274.588
275.816
274.889
274.738
274.795
274.298
275.121
275.443
277.109
275.715
276.462
275.737
274.49
276.021
274.578
274.9
274.555
275.986
274.451
274.954
274.905
275.229
276.085
275.89
274.423
275.29
275.791
275.333
274.891
275.104
275.472
275.062
274.329
275.119
275.977
275.461
276.471
275.993
274.323
276.385
275.093
274.521
275.554
274.652
275.055
276.136
275.67
274.664
274.697
274.656
275.609
274.809
274.872
275.056
276.906
274.922
274.925
275.752
276.327
276.448
276.049
274.812
274.509
275.304
276.306
275.603
275.439
274.82
276.167
276.155
275.374
275.367
274.291
275.514
274.519
276.248
276.222
275.061
275.12
274.76
274.697
274.8
274.707
274.559
274.589
274.386
275.647
275.263
274.979
274.003
275.864
276.799
275.676
274.2
276.798
275.593
275.371
274.704
275.112
274.153
275.23
276.004
275.438
274.576
274.77
275.207
275.012
274.644
274.763
274.717
274.641
274.422
274.959
275.239
274.713
274.532
274.668
274.499
276.083
275.201
276.526
274.693
274.554
274.771
274.628
275.853
273.914
275.607
275.265
275.541
274.422
274.965
275.461
274.965
275.273
274.652
274.657
274.761
276.818
275.114
276.464
275.546
275.889
275.222
275.408
274.208
275.178
274.697
275.257
274.874
274.714
274.997
274.709
274.319
275.581
275.401
276.441
277.647
276.768
276.476
275.513
275.137
275.38
274.927
275.354
274.59
276.331
275.561
275.605
274.255
274.809
275.119
274.36
274.445
274.916
275.183
275.102
274.301
275.289
274.629
274.287
274.537
274.901
274.826
274.959
275.028
274.569
275.833
274.845
275.067
274.617
274.332
274.55
277.2
276.182
275.683
275.986
274.287
274.851
275.549
274.414
274.994
277.142
274.706
275.76
274.725
274.517
275.033
275.465
275.261
275.728
274.734
273.832
274.532
274.072
274.952
274.384
274.54
274.663
274.969
277.054
276.199
277.224
275.067
275.339
276.009
275.93
275.98
274.871
274.392
275.391
274.771
274.336
275.355
274.529
274.855
275.868
274.775
275.498
274.845
273.958
274.852
274.488
275.462
275.06
275.12
274.793
274.426
274.857
274.448
274.295
275.344
274.571
274.418
274.23
275.91
275.558
275.639
275.157
275.412
274.762
275.128
275.271
274.792
275.518
274.981
274.794
275.563
274.386
275.128
275.496
274.741
274.418
274.19
275.185
275.603
274.14
274.785
274.356
274.381
274.36
274.063
274.587
274.376
274.44
274.15
275.678
277.67
275.842
275.656
275.439
274.4
276.15
274.105
275.307
276.11
274.52
274.772
273.914
275.86
275.538
274.128
274.5
275.378
274.928
274.327
275.679
274.216
274.035
274.74
274.237
274.861
274.34
274.299
273.979
274.677
276.165
276.002
276.871
275.325
275.184
276.708
275.918
276.059
275.484
275.051
275.425
275.191
275.789
275.783
275.269
274.241
275.382
275.93
273.97
275.442
273.92
274.443
274.716
274.181
274.052
274.046
274.976
274.729
274.636
274.598
274.14
275.056
274.302
273.959
274.09
274.513
274.093
274.25
274.373
273.786
274.149
275.299
276.177
275.966
276.723
275.559
275.356
275.581
276.017
275.304
276.624
276.101
275.978
274.984
274.906
274.312
274.608
274.557
275.091
274.246
274.233
275.289
274.442
273.994
274.658
274.656
274.496
274.043
274.251
274.562
274.178
274.208
274.053
274.147
274.032
274.413
276.327
277.803
276.643
274.771
275.976
275.518
276.11
275.955
276.048
274.803
274.84
274.117
275.343
276.099
274.681
274.81
273.916
275.86
273.981
275.578
274.498
275.154
275.083
274.061
274.475
274.431
273.962
274.07
274.189
274.336
274.278
274.725
274.033
274.922
274.493
274.706
273.992
274.101
273.955
273.897
276.63
276.179
274.902
275.675
275.594
276.069
275.638
275.402
274.602
275.242
276.183
275.216
275.227
274.211
274.928
275.234
274.987
274.739
274.983
274.425
274.358
274.397
275.338
275.865
274.988
275.771
274.364
275.999
275.154
274.446
274.333
276.058
274.367
274.742
274.158
274.327
273.915
274.485
273.863
274.143
273.67
273.678
274.013
274.481
273.913
274.875
274.743
274.076
273.915
274.532
274.286
274.02
273.953
274.74
274.343
274.384
276.02
276.175
275.623
276.923
275.113
274.462
274.276
274.57
274.995
276.251
274.721
274.741
275.134
273.837
274.242
274.756
274.392
273.687
275.244
274.075
274.364
274.388
274.182
274.062
274.136
274.38
274.33
274.311
275.304
275.615
275.647
275.59
275.971
275.765
275.464
276.735
275.243
274.132
274.989
274.484
275.673
276.104
275.147
274.575
274.699
274.351
275.42
274.707
275.399
274.288
273.76
274.347
274.729
274.116
273.799
274.986
273.628
273.813
274.344
274.644
274.079
273.954
274.052
273.544
274.911
273.977
273.849
274.051
276.041
276.858
275.912
275.909
275.574
274.164
274.63
274.397
276.616
274.258
275.444
274.272
275.641
274.589
274.125
274.284
274.278
274.999
273.956
274.066
275.73
274.824
274.537
275.017
274.762
274.501
274.103
273.928
274.026
273.721
273.837
274.152
273.89
273.725
274.504
274.117
274.054
274.09
277.081
275.184
277.57
274.76
274.836
275.385
275.005
275.496
274.72
274.317
274.583
274.666
274.488
274.104
274.999
273.908
274.205
274.005
273.697
274.041
273.46
274.841
274.291
274.06
273.727
273.784
273.869
273.964
273.698
276.065
274.427
275.042
275.406
274.399
274.359
274.887
274.957
275.146
274.34
275.553
273.965
273.794
274.482
274.326
274.077
274.407
274.613
274.688
274.397
275.196
274.439
273.737
274.114
274.368
274.209
274.016
274.068
274.101
273.606
274.031
273.772
275.525
273.9
273.483
274.114
274.051
273.567
274.106
276.426
273.749
277.426
275.236
275.29
275.039
275.441
274.568
273.719
274.068
274.836
274.517
273.745
274.343
274.155
274.123
274.318
273.917
273.899
274.259
273.682
273.775
274.034
273.832
274.289
275.643
275.472
275.063
275.82
274.536
274.435
275.227
273.931
274.662
274.49
274.061
273.828
274.613
274.016
274.484
273.86
273.783
273.979
273.965
273.673
273.916
273.988
273.659
274.018
274.458
273.88
273.71
273.523
273.967
273.765
273.947
273.337
274.756
275.366
275.725
275.284
275.271
274.493
275.794
275.375
275.525
274.076
275.038
274.471
273.938
274.875
274.74
274.001
274.02
274.298
273.517
273.781
274.388
273.39
273.343
274.077
273.883
273.864
273.811
273.6
274.092
273.944
273.639
273.7
273.868
273.706
276.097
275.225
277.93
275.801
276.812
274.142
275.404
274.229
274.879
275.234
275.176
274.046
273.899
274.13
274.084
275.652
274.74
274.699
274.742
274.375
274.022
274.213
274.243
274.066
274.019
274.05
273.568
273.675