/*--------------------------------*- C++ -*----------------------------------*\
| =========                 |                                                 |
| \\      /  F ield         | OpenFOAM: The Open Source CFD Toolbox           |
|  \\    /   O peration     | Version:  1.7.0                                 |
|   \\  /    A nd           | Web:      www.OpenFOAM.com                      |
|    \\/     M anipulation  |                                                 |
\*---------------------------------------------------------------------------*/
FoamFile
{
    version     2.0;
    format      ascii;
    class       vectorField;
    location    "0.33/lagrangian/defaultCloud";
    object      U;
}
// * * * * * * * * * * * * * * * * * * * * * * * * * * * * * * * * * * * * * //


29889
(
(6.40986 1.7057 8.31635e-06)
(11.3737 0.359972 1.91988e-07)
(7.8161 -0.0681965 2.03789e-08)
(7.73089 -0.666689 -2.4931e-07)
(11.6521 0.382509 -1.46837e-07)
(13.1479 -0.447571 -1.43041e-07)
(11.9204 0.0170332 -2.02477e-09)
(10.2476 0.281245 3.8946e-07)
(16.2834 -0.119727 -5.9942e-08)
(14.1342 -0.471607 -1.07932e-06)
(8.11088 -0.0132455 3.43017e-08)
(12.8548 0.833015 4.00063e-06)
(9.80526 -0.273744 2.15244e-08)
(10.8872 -1.26107 4.17324e-06)
(13.2678 -0.262936 2.13557e-07)
(14.7261 0.266041 7.33688e-07)
(11.19 0.447622 -2.76027e-07)
(17.2089 0.0797682 -3.3286e-07)
(13.2774 -0.243111 1.16704e-07)
(13.8484 0.548059 4.49489e-07)
(12.2397 -0.0800197 -1.66688e-07)
(13.9612 -0.475486 6.34675e-09)
(12.4472 0.46389 -3.02129e-06)
(11.1343 0.575624 7.80387e-07)
(11.3717 -1.03103 6.67722e-10)
(9.42276 -1.16423 2.03176e-06)
(10.3999 -0.161519 -1.97001e-07)
(12.2784 -1.31426 -5.65864e-08)
(13.6179 0.17759 4.27878e-08)
(12.2775 0.443082 1.95505e-07)
(13.535 3.05671 1.1334e-06)
(12.0352 -0.0144518 -8.69373e-08)
(9.25791 0.0110057 2.28509e-08)
(13.9725 0.299935 3.8888e-07)
(13.0212 -0.231003 -1.06554e-06)
(15.7835 0.156555 -1.38435e-07)
(12.9375 0.178776 -2.33981e-08)
(13.706 0.459043 -2.42117e-08)
(14.5081 -0.10015 2.56676e-08)
(10.8175 0.499934 -4.65099e-10)
(13.107 0.649775 5.87264e-07)
(15.0453 0.647021 -6.82493e-06)
(17.6038 -1.78459 -4.67466e-07)
(10.4636 -0.00642326 -2.25104e-09)
(16.1311 0.257767 -2.59002e-07)
(13.072 1.00281 4.61234e-06)
(7.54329 -0.449585 -3.5284e-07)
(12.5097 0.505088 -1.40138e-07)
(13.751 -0.159505 -5.64987e-07)
(13.0886 -0.489556 1.90392e-07)
(16.3422 0.861153 1.95622e-06)
(11.6074 0.938663 -5.96707e-08)
(14.1335 0.0777682 3.45856e-08)
(8.50205 0.0757088 -3.27006e-08)
(14.1279 0.0245719 -1.02252e-07)
(14.5454 -0.262252 -6.40333e-08)
(12.9911 -0.201272 -9.44002e-08)
(9.41526 2.91327 3.65711e-06)
(15.1274 -0.213403 -3.55973e-08)
(20.9873 -1.11954 1.90243e-06)
(12.8373 0.33686 -1.45152e-06)
(11.3812 0.716275 1.39664e-06)
(13.7688 0.000804028 1.24879e-09)
(11.5558 1.15567 -6.04281e-06)
(13.6752 -0.192102 -4.77568e-08)
(12.2052 0.64806 -2.95762e-09)
(12.2214 1.46011 -5.91038e-06)
(16.9377 0.0937255 3.17485e-08)
(15.003 -0.142361 -5.69387e-07)
(17.0207 0.241099 3.32144e-07)
(13.3011 0.0331933 -5.03961e-08)
(13.6173 0.647547 -5.72422e-08)
(17.083 0.520445 1.02116e-07)
(10.8451 0.405094 8.70557e-07)
(14.762 -0.904956 3.84636e-07)
(12.4011 0.510235 6.79757e-08)
(13.2269 0.361196 -4.74331e-07)
(12.0698 2.61758 1.01796e-06)
(15.8186 -0.390563 2.73122e-08)
(10.6586 0.721098 -1.12228e-06)
(11.1944 0.22809 6.09106e-07)
(10.9192 0.427895 -5.61829e-09)
(13.3721 0.346704 1.96048e-06)
(14.955 0.146759 -1.83905e-07)
(14.5138 0.275115 2.68781e-08)
(13.216 0.077478 2.5595e-07)
(10.8173 0.738228 2.81544e-06)
(14.748 -0.573227 2.37876e-06)
(13.9776 -0.222497 -5.23595e-08)
(11.1754 0.440219 4.24272e-10)
(10.9511 0.694851 -1.76843e-06)
(15.2883 0.105416 -8.75092e-08)
(12.1914 0.152905 1.68133e-07)
(17.67 -0.0980655 -2.75777e-07)
(12.5107 0.167799 -3.40177e-07)
(12.9315 1.86261 2.80132e-08)
(11.4097 0.406287 -5.67037e-07)
(16.7288 -0.0819154 4.17055e-07)
(12.2734 0.945944 3.85875e-07)
(8.75087 0.0799831 1.19016e-08)
(10.4018 0.280323 1.09345e-06)
(15.8547 0.274366 -4.1039e-07)
(21.4878 -1.97437 -9.06341e-07)
(12.5176 0.317746 3.6598e-07)
(11.0891 0.46495 1.23124e-06)
(8.01309 0.213095 -2.75212e-08)
(17.364 -0.262651 -1.92496e-08)
(10.858 0.0628475 -6.62025e-08)
(12.5277 0.0364198 2.72631e-08)
(12.4826 0.201992 6.9069e-07)
(9.53876 0.048163 7.86009e-09)
(13.0011 0.0454036 1.0681e-07)
(18.0778 0.376721 -6.43765e-07)
(14.4273 2.2818 1.17632e-05)
(9.4342 -0.213895 -2.43063e-08)
(14.3655 1.37296 9.26921e-06)
(17.2181 0.101708 6.65531e-09)
(12.0591 0.0502087 1.00697e-07)
(15.6568 -0.595934 -1.03728e-05)
(8.66452 0.278662 2.15125e-07)
(17.1564 -0.000847467 1.04796e-11)
(13.9832 0.0134569 -1.42707e-09)
(14.5498 -0.161894 -3.28235e-06)
(13.3457 -1.32837 -5.7343e-07)
(8.23754 0.556808 1.04059e-08)
(11.2436 0.309157 -2.08406e-08)
(13.2119 -0.0277641 1.27725e-07)
(10.9863 -0.397022 -7.09346e-08)
(11.6454 0.357548 3.36839e-08)
(13.5775 0.34349 -1.30541e-06)
(16.1886 0.232217 -1.05069e-06)
(10.4548 0.54569 -2.70788e-07)
(15.5855 -0.20031 -2.60696e-06)
(17.7641 -0.249077 -8.74112e-06)
(11.8751 -0.131761 5.15725e-08)
(14.4228 0.639375 1.07856e-05)
(18.347 0.165683 -2.23216e-07)
(5.09492 0.488525 8.81644e-08)
(11.9641 1.21069 7.11569e-08)
(14.8857 -0.271944 -4.89373e-10)
(15.8576 0.194928 1.81016e-06)
(16.8542 -0.724235 -7.22936e-06)
(17.0966 -0.533064 1.83019e-06)
(11.4684 0.941013 3.08167e-07)
(8.46974 0.32261 -3.61886e-07)
(13.0542 0.521105 -6.97807e-08)
(14.6856 0.0488202 -9.26445e-09)
(2.88746 -2.03693 8.82609e-07)
(18.7471 -1.17046 -1.33828e-06)
(13.1967 0.198058 9.45265e-07)
(5.94304 -0.113413 -2.10486e-07)
(13.583 1.09897 -7.63524e-07)
(11.2853 -0.0314053 2.39292e-08)
(11.3122 -1.14474 7.9162e-06)
(9.14289 2.14489 -2.68567e-06)
(14.5318 0.0749363 1.88003e-07)
(17.8032 -1.29151 -1.68012e-09)
(17.9468 0.433454 1.18325e-06)
(11.1101 -0.00775385 1.5749e-08)
(14.0469 0.436185 -6.1044e-07)
(10.8011 0.0628989 8.46186e-09)
(10.3157 0.454497 6.15906e-07)
(17.5524 0.330178 7.4188e-06)
(16.1515 -0.158148 -3.99665e-06)
(16.8208 0.16754 -4.87552e-06)
(20.9018 0.0370719 -5.73186e-08)
(10.2908 0.135732 2.12478e-08)
(12.4543 0.295245 -1.16154e-06)
(15.8128 0.774422 -9.231e-06)
(10.6712 -0.205972 -4.13009e-07)
(12.9874 -0.0795279 3.6984e-07)
(12.5674 0.114689 -1.34993e-07)
(10.5356 0.410735 -1.2094e-06)
(15.3679 0.202125 -1.21267e-07)
(15.6348 -2.036 -3.04874e-06)
(18.5419 -1.06671 -7.53495e-07)
(18.464 0.241704 2.81394e-06)
(12.9615 0.517074 6.57032e-07)
(18.2101 1.33379 2.88484e-06)
(11.6308 -1.62801 1.87874e-07)
(14.8802 0.415811 5.68636e-08)
(18.2438 -0.211013 -1.98437e-06)
(15.6915 0.235781 -5.49648e-06)
(10.2736 0.265412 -3.23805e-07)
(11.8878 -0.205727 -3.23571e-07)
(17.8677 0.252561 4.3991e-08)
(12.3375 1.09213 -5.40918e-06)
(11.3584 0.230832 5.68422e-07)
(18.9488 -0.0950836 -3.63211e-07)
(17.9957 0.282056 3.01295e-05)
(17.0981 0.862215 -3.43405e-05)
(7.95882 0.0533578 -7.16545e-08)
(13.6684 0.0631071 6.34173e-08)
(11.6466 0.25519 2.10082e-06)
(14.3958 -0.695641 -9.12936e-08)
(15.132 2.0371 5.43171e-05)
(16.3662 -0.966159 -4.21475e-06)
(13.9348 -0.170144 3.89695e-07)
(10.375 0.234891 -1.45158e-07)
(10.4764 0.22866 8.78308e-07)
(14.6461 2.11582 -3.69554e-06)
(12.812 -0.65921 -3.39326e-07)
(14.4766 0.42064 -1.15139e-05)
(11.8255 2.29178 6.03517e-06)
(8.38185 0.0977334 1.65016e-07)
(15.9521 -1.12943 1.04957e-05)
(16.968 0.146537 2.76739e-07)
(13.3597 -0.320509 -1.28643e-06)
(17.3784 0.988638 9.13358e-08)
(15.8973 -0.536717 -4.28919e-05)
(15.9878 -0.299044 1.60157e-06)
(16.7711 -0.171703 2.48225e-07)
(10.9965 0.227008 1.57231e-07)
(17.6188 0.684529 -1.76905e-07)
(16.2415 0.347678 5.73008e-07)
(11.2593 -0.132784 1.69328e-07)
(17.1331 0.0887531 3.55805e-07)
(18.9905 0.880122 -3.50241e-05)
(12.6792 1.52167 3.63197e-06)
(16.0606 0.19624 2.4747e-06)
(20.9494 -0.113245 6.74093e-08)
(13.9978 -0.0660187 1.49623e-07)
(12.598 -0.72001 -2.98203e-06)
(15.1495 0.201282 -3.40209e-07)
(18.9545 -0.210555 5.70461e-08)
(11.1944 1.84084 7.99468e-07)
(9.92379 -0.118714 -1.1199e-08)
(16.67 -0.801145 1.79793e-06)
(13.38 -0.76445 -3.61184e-06)
(13.658 1.55084 4.97144e-06)
(15.03 0.303229 2.509e-06)
(18.0272 0.264032 -9.57372e-08)
(9.60984 0.651141 -4.74443e-09)
(14.2714 -1.77892 3.02996e-06)
(14.4228 -0.277377 -1.1907e-05)
(18.1437 0.315534 -1.99255e-05)
(11.2681 0.346506 2.83598e-06)
(20.279 0.717762 3.98665e-05)
(14.2748 0.429253 1.65594e-06)
(15.9139 -0.118651 -3.2217e-07)
(10.7704 -0.14257 -1.90407e-07)
(16.9655 0.499959 4.6483e-07)
(15.2106 -0.346743 -5.49976e-07)
(18.7606 0.9355 -3.58181e-05)
(11.3546 -1.33601 -4.38593e-05)
(8.47918 -0.058248 -4.53628e-08)
(16.8238 0.3854 -3.33254e-06)
(18.2978 -0.0462061 1.8222e-07)
(18.89 -0.443185 8.66834e-06)
(14.6072 0.554058 1.65683e-05)
(18.267 -0.735553 -1.35478e-05)
(11.6858 0.129089 6.16979e-07)
(12.2319 0.685518 3.75981e-06)
(15.5623 0.0749788 -3.36226e-08)
(19.5174 0.747204 7.21692e-06)
(8.41094 0.00909397 -2.379e-09)
(20.4118 -0.0401752 4.10261e-08)
(20.482 1.21988 -6.92836e-05)
(12.4573 -0.323569 8.88203e-07)
(15.0608 0.47097 -6.1365e-07)
(17.5077 -0.0857657 -2.29641e-06)
(18.4979 0.212921 -4.58824e-07)
(16.9043 0.620503 1.9769e-05)
(18.8608 -0.42045 -1.24496e-05)
(9.41628 1.60289 -3.69903e-06)
(16.042 -0.360344 -5.47382e-08)
(10.2995 0.0210146 -2.90869e-08)
(15.4498 2.44094 -4.28902e-06)
(17.0419 0.198244 -2.48731e-08)
(18.735 0.87959 -3.56436e-07)
(16.5271 0.46525 -1.20884e-05)
(15.5067 0.0251109 9.00745e-08)
(16.7054 0.663612 2.29604e-06)
(12.9479 -0.298536 5.01393e-07)
(21.3495 0.590293 -1.1449e-05)
(16.8572 0.476271 -3.57578e-06)
(19.6291 0.0876743 -9.70871e-07)
(14.6394 1.09234 -1.72497e-06)
(19.5185 -0.437428 -4.53234e-06)
(19.865 0.698085 -7.7543e-07)
(9.05838 -0.0735481 2.97942e-07)
(9.96019 0.191328 2.40174e-10)
(14.3573 0.720994 1.46255e-06)
(18.1763 -0.0226644 1.1477e-06)
(15.7794 -0.265905 -9.64251e-07)
(10.1336 -0.101293 1.93674e-07)
(15.9565 -0.0968767 1.58134e-07)
(15.4153 -0.183006 3.12919e-08)
(17.1403 0.135373 1.23779e-06)
(21.3782 -0.384222 1.29977e-05)
(13.8183 0.171944 9.11722e-07)
(22.2886 -0.120667 -7.3279e-07)
(20.4492 0.305104 1.03369e-06)
(26.8843 -3.98344 -2.29612e-05)
(20.9512 0.36647 2.02547e-05)
(18.6121 -0.207894 8.8808e-06)
(12.7845 0.952913 -1.89093e-06)
(15.6475 0.496963 -1.19635e-08)
(21.7941 0.101655 -6.86605e-09)
(23.0796 0.551271 3.76205e-05)
(9.15126 -0.539719 1.10419e-06)
(12.7356 0.27186 2.75263e-07)
(15.6593 1.12647 4.5844e-05)
(19.3427 0.0136886 -8.90512e-08)
(20.4693 0.149855 -3.84406e-06)
(10.1408 0.167577 -1.74251e-07)
(12.5992 -0.104292 -2.89228e-08)
(18.6733 1.17584 -1.31857e-05)
(22.6505 -0.278531 -4.52834e-08)
(18.9487 0.534175 1.58478e-06)
(9.79472 -0.111812 -2.84429e-09)
(16.1543 -2.68872 -2.71329e-05)
(20.4857 -0.188593 1.46096e-05)
(11.8942 0.00364295 -6.87207e-10)
(23.986 -0.14709 -4.17138e-06)
(9.01886 0.57791 6.11575e-07)
(10.414 0.315744 -3.32838e-08)
(13.8202 0.349646 -9.03627e-07)
(13.0537 -0.183629 4.18153e-08)
(10.8207 0.013058 1.18342e-09)
(12.6747 0.0639916 2.76625e-09)
(17.2271 -0.00190738 -1.05276e-09)
(17.4411 -0.00199462 7.22053e-10)
(15.2162 0.718806 1.85245e-07)
(25.1282 -0.107785 -2.42679e-06)
(9.51249 0.265558 -1.85859e-07)
(10.9026 -0.498058 1.0605e-06)
(9.2258 0.485387 8.8249e-08)
(24.4122 -0.663781 -1.14041e-05)
(15.4506 0.366242 1.04436e-05)
(10.2153 -0.0865201 1.0049e-07)
(18.7605 1.02696 2.73026e-05)
(7.425 -0.130502 -8.01127e-08)
(15.9082 0.505769 4.36545e-06)
(13.0559 0.184778 -7.53854e-07)
(15.7724 0.521467 1.438e-07)
(20.1599 -1.01416 -3.87121e-06)
(10.2735 0.121052 7.2403e-10)
(14.7068 0.174183 3.02871e-06)
(22.8916 0.56634 -3.34562e-06)
(16.6199 0.742658 3.19392e-06)
(20.1976 -0.579999 5.04317e-05)
(8.85897 0.303766 4.72084e-07)
(15.4774 -0.675744 -2.18849e-07)
(23.2496 0.587268 -3.94263e-05)
(10.2365 -0.0661096 1.30069e-08)
(15.5781 -0.0718156 -3.94074e-07)
(17.7638 -0.206359 8.85047e-08)
(18.1878 0.0586818 -3.65042e-08)
(8.36466 0.00615076 -1.02664e-10)
(26.1379 -0.0921403 -8.30255e-07)
(19.2119 1.29648 -1.64506e-06)
(24.4213 0.513668 7.16347e-05)
(23.4678 1.89015 -2.69837e-06)
(22.1703 -0.436001 -2.64784e-06)
(22.0723 0.0810964 -6.6675e-07)
(22.4786 0.136458 -5.12501e-07)
(17.5268 -0.529887 8.2775e-06)
(18.3954 -0.335179 -9.74079e-06)
(24.3953 -0.394897 -1.13965e-05)
(20.6995 -1.01594 -1.07132e-06)
(21.7667 -1.36551 -7.03745e-06)
(7.17211 -0.172103 3.31071e-08)
(22.5622 0.0314637 -6.57846e-06)
(10.6861 -0.349697 -8.95555e-07)
(24.6321 1.69214 0.000222799)
(10.9634 0.993063 -3.20377e-06)
(15.162 0.382667 -7.42571e-06)
(19.8393 0.31862 -8.38786e-07)
(16.5636 0.857172 -9.54558e-07)
(13.6292 0.942586 -1.18573e-06)
(17.4708 0.112031 1.15207e-08)
(24.1994 0.486013 -4.57851e-05)
(17.0535 -0.336305 -1.0148e-06)
(23.5326 0.364529 -1.58073e-05)
(18.2805 0.296936 1.0053e-06)
(22.6867 -0.265598 -1.29926e-05)
(22.4647 0.527634 -1.61513e-05)
(25.7778 -0.567162 -1.23421e-05)
(13.3863 1.59968 3.43577e-07)
(21.7315 -1.37366 -7.68167e-05)
(17.6601 0.075495 8.96039e-09)
(26.6085 -0.378311 5.5827e-05)
(20.566 0.170617 -4.21442e-06)
(20.5728 -0.401082 -8.82057e-07)
(20.4666 -0.554648 -7.18823e-05)
(25.528 0.137711 -2.30862e-07)
(28.491 -4.1846 -5.32272e-05)
(22.6657 0.37235 2.0192e-05)
(24.8737 0.329538 -3.29847e-06)
(19.8264 0.253872 -3.39065e-06)
(5.98375 0.0482282 7.99711e-09)
(13.5089 0.00467035 2.21303e-08)
(27.6384 -0.926051 3.78914e-05)
(26.6313 0.397542 -2.9925e-07)
(15.5117 0.192372 -4.25535e-08)
(19.4652 0.0119194 -7.9241e-07)
(29.169 -0.646917 -0.000200294)
(29.1518 -0.436451 -1.41972e-05)
(13.3882 0.0367329 -8.001e-08)
(24.6912 -0.828408 -2.46589e-05)
(18.5721 -0.247968 2.70223e-06)
(28.1422 0.38547 9.44355e-05)
(27.5409 0.637681 -0.000115604)
(14.6002 -0.112963 1.55787e-07)
(16.6561 0.0855956 8.50774e-07)
(18.7215 2.44795 4.12598e-05)
(22.2886 0.813529 1.93127e-06)
(28.5509 0.0949862 7.59489e-06)
(27.2802 -0.899863 -1.19088e-05)
(27.0551 -0.119482 -5.63154e-07)
(28.8989 -0.548699 -8.31916e-05)
(7.84787 0.211245 -5.45326e-08)
(8.27326 0.479185 -1.51171e-07)
(20.7693 0.65034 -1.17553e-05)
(30.0927 0.415174 6.7432e-05)
(30.8019 0.00519822 -1.31292e-07)
(25.9422 0.893119 2.26332e-05)
(11.897 0.137927 -2.56794e-07)
(30.7705 0.0255372 -2.84469e-06)
(16.7694 0.187004 -5.19999e-07)
(23.5336 0.425064 -5.60517e-06)
(22.8922 0.496383 -6.8699e-07)
(26.8272 0.523507 7.40147e-05)
(28.7094 0.27823 -6.292e-05)
(16.5634 -0.121553 8.20238e-07)
(28.9641 0.139445 6.58261e-05)
(24.2216 -1.2199 -0.000114059)
(20.3865 0.156919 -4.1536e-06)
(30.5951 0.501775 -0.000347563)
(30.3885 0.0246406 -1.71941e-07)
(18.2438 0.634091 -1.82718e-05)
(9.59968 0.161888 5.70982e-07)
(29.0177 -0.0117326 4.33723e-06)
(30.1358 0.499174 0.000173691)
(15.3223 0.355502 -8.45701e-07)
(18.9998 0.113141 9.19068e-07)
(29.3137 0.357602 -0.000107914)
(29.49 0.380048 2.38938e-05)
(18.1813 -0.267812 -3.30498e-06)
(12.3299 -0.0385678 6.18201e-07)
(12.7143 -0.108438 -4.1552e-07)
(11.2571 0.306083 -1.06709e-06)
(27.4065 0.158763 -7.0285e-06)
(29.484 0.288441 -3.06355e-05)
(7.5295 0.49543 8.91019e-07)
(30.8358 0.0113403 -1.76627e-05)
(30.2795 0.023198 -1.69654e-06)
(30.8939 0.0846062 -2.85251e-05)
(29.9801 0.458828 -0.000110524)
(26.3253 0.376773 -2.29033e-05)
(30.3808 0.022178 -1.80294e-07)
(25.3048 1.26554 4.3777e-06)
(31.0218 0.0164939 -2.31054e-05)
(27.2874 -0.105537 5.55953e-08)
(29.8 0.0469616 -3.40259e-07)
(30.324 0.0360928 1.31111e-05)
(30.8016 0.0302472 -5.50871e-05)
(17.7949 -0.319413 3.97138e-06)
(30.8987 0.320363 0.000116349)
(28.7076 -0.164422 -9.67417e-06)
(28.5524 0.456935 -2.51114e-06)
(29.8991 0.535985 -1.08268e-05)
(28.0973 -0.0915857 1.38858e-06)
(22.6581 0.144955 -2.60487e-06)
(28.9553 -0.0175139 -3.55054e-06)
(30.4849 -0.0885739 2.60309e-06)
(24.2831 0.84115 -7.76131e-07)
(28.3389 0.334993 1.62524e-06)
(17.4619 0.0732689 -7.27965e-07)
(13.6191 -0.256682 1.98392e-06)
(18.4381 0.95736 5.01383e-06)
(23.2354 -0.600592 -1.20627e-05)
(20.441 0.0812703 2.80924e-06)
(26.8243 2.2592 0.000183572)
(30.0966 0.43558 9.56394e-06)
(29.9772 0.136412 2.49768e-05)
(30.916 0.115462 -0.000969937)
(30.8981 0.401633 0.000368003)
(15.3414 0.21384 -4.34252e-06)
(27.8111 0.601594 -1.17452e-05)
(17.7308 0.0726007 4.44619e-08)
(31.0616 0.221469 -7.35388e-05)
(14.5807 -0.137382 2.30657e-07)
(6.57667 -0.0667585 -6.27224e-08)
(30.6867 0.354995 -3.73233e-05)
(8.29268 0.187193 -9.94976e-09)
(30.0956 0.0695715 5.69004e-06)
(29.9618 0.146849 -4.3101e-07)
(27.8752 0.32172 3.05239e-07)
(29.8648 0.656717 -4.01299e-06)
(21.65 -0.0653199 -2.93298e-08)
(26.8921 1.30033 0.000496187)
(5.19449 -0.0444823 -1.09035e-07)
(30.4677 0.110875 -7.19305e-06)
(30.9266 0.216152 0.00225933)
(30.1978 0.0860179 2.38174e-05)
(27.7065 0.384755 7.41349e-05)
(29.2427 0.244358 1.01776e-05)
(9.90562 0.105977 2.27522e-07)
(27.4199 0.0471184 3.9783e-06)
(29.9914 0.398812 5.48591e-05)
(30.7083 0.130199 0.00016605)
(28.352 1.10494 -0.000227947)
(21.8306 0.360476 -2.2723e-05)
(23.1135 -0.00488057 1.29547e-07)
(27.4495 -0.372684 5.52924e-06)
(30.8972 0.0509696 -2.41355e-07)
(27.0929 0.357515 -1.15958e-05)
(9.22333 -0.14151 5.46789e-07)
(29.8843 0.0668659 -6.51323e-07)
(30.4078 -0.170977 -3.80071e-06)
(25.8834 -0.288321 -2.92423e-07)
(29.7634 0.0484254 1.11689e-06)
(30.2967 0.0273347 1.25903e-05)
(21.6253 0.0384767 -1.76206e-07)
(28.1999 0.481963 7.87842e-06)
(29.9141 0.0435869 1.6859e-07)
(30.1451 -0.517231 3.09163e-05)
(30.582 0.0361545 1.70855e-07)
(5.93914 0.0270508 -5.07861e-10)
(15.1333 -0.353455 -2.2822e-07)
(31.1739 0.734153 0.00016107)
(16.5812 0.0013535 -4.59728e-10)
(16.7497 -0.367906 2.40501e-06)
(30.173 0.0338072 -6.79246e-06)
(30.1888 0.318374 -5.13604e-05)
(29.9167 -0.437402 -0.000113562)
(25.8695 -0.220589 -2.68744e-05)
(19.3672 0.755715 -2.78726e-06)
(18.2734 0.27843 1.38138e-05)
(29.3512 0.348583 -2.74253e-06)
(29.7032 -0.10651 1.70447e-05)
(8.02448 0.864226 5.18365e-07)
(28.2576 0.0120797 4.46769e-06)
(29.1966 0.0700735 1.04742e-05)
(17.8934 0.675703 -1.02106e-05)
(14.4839 0.0232428 -1.03049e-08)
(29.8439 0.596818 -9.10451e-05)
(19.766 -0.252519 -5.06337e-06)
(18.5836 -0.0693155 -1.23414e-06)
(15.2683 0.409811 1.55448e-05)
(21.3758 0.501242 7.23397e-06)
(27.5912 0.347973 3.22501e-05)
(18.0899 0.680765 1.29916e-05)
(25.7389 0.669925 1.9734e-06)
(28.129 -0.247471 2.73875e-05)
(21.9156 -0.407305 3.12411e-07)
(29.1008 0.716234 7.69783e-05)
(25.8119 0.0728936 6.16966e-06)
(30.7165 0.101723 3.01299e-05)
(27.8169 -0.660163 -3.77311e-06)
(25.5016 0.186365 -2.7016e-07)
(8.50867 -0.439059 1.54427e-06)
(4.71078 -0.164967 5.49944e-07)
(30.8808 0.557424 -0.000127411)
(12.6947 -0.192102 8.12452e-08)
(30.8485 0.157583 2.19209e-06)
(13.7284 0.0180728 1.50513e-08)
(22.9009 0.334844 7.38375e-07)
(30.3874 0.133284 1.29069e-05)
(31.108 0.0543792 6.57866e-06)
(17.5936 -0.717028 1.0886e-05)
(25.3418 -0.387592 3.82325e-06)
(16.8434 0.0230767 -7.85218e-07)
(26.3629 0.393166 -4.41453e-05)
(7.26339 0.0674438 1.52989e-08)
(31.0725 0.00590828 2.75343e-06)
(11.0644 -0.296231 9.88964e-07)
(16.8865 1.42964 3.65002e-06)
(10.7396 0.164561 1.19136e-07)
(29.8711 0.13286 6.25339e-05)
(30.4134 -0.573793 4.08692e-05)
(20.9583 0.74919 -5.76669e-06)
(30.9152 0.332331 0.000100835)
(18.3725 -0.227737 -3.17444e-06)
(13.4275 0.16409 -7.29035e-07)
(25.2805 0.898476 5.95356e-05)
(29.1754 0.679339 -1.25759e-05)
(20.1465 0.428147 1.18986e-05)
(30.3244 0.633302 -0.000239202)
(27.1947 -0.233764 -3.40218e-05)
(30.3043 0.00987549 -1.86706e-07)
(25.926 -0.704672 3.44586e-06)
(31.0343 0.0518446 3.10415e-07)
(30.11 -0.0463632 -4.29123e-07)
(29.5 0.569071 2.28246e-05)
(15.0888 0.0657977 -1.02891e-07)
(31.1049 0.110991 6.78586e-05)
(29.217 0.117542 7.07563e-07)
(29.9312 0.397973 2.10322e-05)
(30.8981 0.0230336 -5.32446e-07)
(24.682 -0.659923 -2.5573e-07)
(23.7156 -0.333049 -8.12619e-07)
(28.951 -0.246928 1.51159e-06)
(28.0078 0.88505 -5.86904e-06)
(26.8947 0.324436 -5.76055e-07)
(31.1141 0.0311374 -9.01274e-06)
(25.146 0.403992 -7.45163e-06)
(4.70331 -0.129711 3.74278e-07)
(25.6924 -0.0811659 -6.38328e-06)
(23.0775 0.253747 -3.73963e-05)
(30.9097 0.203128 2.51634e-06)
(21.5304 0.590258 -6.88679e-06)
(29.4393 0.625631 -4.25008e-05)
(30.6775 0.063496 6.27062e-06)
(31.1176 0.261844 -2.876e-05)
(24.3369 0.40494 6.61793e-05)
(21.2744 0.220247 8.67674e-06)
(29.3164 0.0752122 2.71813e-05)
(17.4213 -0.49217 -5.19091e-06)
(8.81115 0.833128 -3.9328e-07)
(16.5011 0.913703 -1.12492e-05)
(30.0255 0.0996088 5.15997e-06)
(30.8937 0.303077 3.421e-05)
(18.4355 0.570674 4.59745e-06)
(24.7656 0.158854 5.66614e-07)
(31.0104 0.414686 5.89512e-05)
(30.0095 -0.104648 1.22288e-06)
(15.0774 -0.119861 1.45309e-06)
(30.9794 0.0476745 1.30557e-06)
(30.2464 0.0321754 5.0447e-07)
(30.4875 -0.143418 -2.69866e-06)
(31.1198 0.0627798 -1.59722e-06)
(26.2855 0.568539 4.09332e-07)
(30.9864 0.132929 8.98439e-07)
(24.3791 -0.302626 7.34872e-07)
(30.1971 0.238355 1.95846e-06)
(14.1589 1.28695 9.15514e-06)
(6.13398 0.00457513 2.59925e-09)
(25.6694 0.452219 -5.56459e-05)
(30.9326 0.49582 0.000375523)
(30.7398 0.330499 0.000137241)
(28.9201 -1.46443 -4.67978e-06)
(30.9068 0.0140551 -1.21688e-05)
(30.6531 0.967151 -0.000148153)
(31.073 0.4375 -0.000548623)
(22.1154 0.20637 -6.44264e-06)
(30.7504 0.863101 0.000406424)
(20.6209 -0.121846 1.12014e-06)
(20.5891 0.600622 2.65715e-05)
(30.5483 0.160787 1.35029e-05)
(21.0789 -0.719852 -7.15288e-06)
(23.2814 -0.848632 -5.9234e-06)
(27.7753 0.0344643 4.76567e-06)
(30.5171 0.0965586 -2.91457e-05)
(18.8368 0.664183 9.34721e-06)
(27.0742 0.432448 2.50732e-06)
(7.40528 0.0440871 1.27945e-07)
(13.6218 0.283548 3.68251e-06)
(28.4526 -0.126178 9.37423e-06)
(9.35393 -0.256795 6.23457e-08)
(27.5653 0.378975 -8.07997e-07)
(6.53203 -0.306312 -5.10632e-08)
(20.1613 -0.291918 -4.14207e-07)
(31.0815 0.0119244 1.46035e-07)
(29.6551 0.478031 1.27694e-05)
(26.8033 0.0972365 -8.35508e-07)
(27.5511 0.567807 -3.42887e-06)
(30.6181 0.227131 1.44298e-06)
(3.93214 -0.118603 -3.85599e-07)
(30.2372 0.581769 -1.90713e-06)
(17.7122 0.806152 5.45666e-06)
(28.6711 0.152345 3.42294e-07)
(30.6959 0.180106 1.02872e-06)
(3.25274 -0.136063 -3.11813e-08)
(29.0642 0.631695 -2.00083e-05)
(20.5967 -0.161392 -4.12403e-06)
(25.1389 0.855035 -0.00018927)
(23.5285 0.608248 9.01019e-05)
(21.8624 0.200873 1.91844e-05)
(30.9133 0.162707 2.27094e-05)
(26.6994 0.0448579 -1.56911e-06)
(30.2752 0.223184 0.000105638)
(26.6372 0.298517 -6.67592e-05)
(30.7874 0.365988 -5.58817e-05)
(30.453 0.0329757 1.2692e-06)
(29.1598 -0.245024 -8.3267e-05)
(15.1102 0.0684517 3.56974e-07)
(10.8361 0.147346 3.4566e-08)
(29.6883 0.0513973 -6.18459e-07)
(29.2739 0.126074 -2.51713e-05)
(21.4014 -0.00279589 8.42762e-08)
(30.28 -0.121126 -5.55986e-06)
(30.9492 0.129027 -9.45061e-06)
(26.559 1.20075 0.000105586)
(12.9796 0.275252 -5.01739e-08)
(31.1953 0.0506275 -3.93355e-06)
(31.0685 0.0510239 -1.05092e-06)
(21.8543 0.757256 -1.57998e-05)
(20.3336 0.0276458 -2.57675e-07)
(30.6056 0.192981 -1.94243e-05)
(27.7253 -0.384398 -2.94057e-06)
(19.143 -0.189175 9.18623e-08)
(27.9284 0.178869 4.03929e-07)
(30.4816 0.0445096 4.65481e-07)
(30.6948 0.116387 -4.65347e-06)
(31.0994 0.0619724 -2.418e-06)
(29.4292 -1.25913 -8.64e-05)
(28.2136 0.098201 5.35487e-06)
(28.3992 0.219871 2.06367e-05)
(23.821 -0.703641 7.85266e-05)
(24.6625 -0.247188 -2.70412e-05)
(30.954 0.112984 1.69289e-05)
(14.2513 0.0150166 -4.98824e-07)
(25.6253 0.459606 5.15807e-06)
(14.2528 0.21293 -7.66835e-07)
(29.6164 0.529141 0.000113714)
(31.0665 0.0525628 -6.94183e-07)
(16.6369 1.4012 -8.38048e-06)
(28.8982 0.0400489 -7.80883e-08)
(29.5634 0.457721 -2.78099e-05)
(30.6651 0.0860171 -2.13622e-05)
(30.4167 0.466616 -0.000173126)
(19.4018 1.00583 6.22477e-06)
(20.565 -0.0968621 -3.63039e-08)
(25.5705 0.977129 -4.22039e-05)
(29.0511 0.0988217 -1.94601e-05)
(19.0251 0.936363 2.96993e-05)
(21.0799 0.150369 5.72635e-06)
(30.9807 0.152957 -3.79103e-05)
(30.6581 0.392884 0.000183408)
(30.9135 0.229711 -6.79449e-06)
(30.1371 0.332021 -3.97115e-05)
(27.2191 0.232297 1.14341e-05)
(15.0775 -0.149588 -8.29211e-07)
(25.299 -0.125373 -6.10783e-06)
(16.7892 1.1736 1.29381e-05)
(29.8663 0.260368 3.80092e-05)
(31.0163 0.541818 -8.10619e-05)
(15.5294 0.903435 4.14004e-07)
(30.6468 -0.054117 -4.84691e-07)
(26.3845 0.139216 1.77971e-06)
(31.0692 0.138243 -9.18395e-06)
(28.8595 0.719903 4.97626e-05)
(31.4078 0.0851205 -5.70717e-05)
(30.7363 0.273562 -4.61518e-05)
(26.2736 0.0832649 -1.68444e-07)
(16.795 0.431864 1.32455e-06)
(30.7528 0.112169 6.70231e-06)
(25.4249 0.133375 -2.4896e-07)
(8.64196 -0.88798 -1.00623e-08)
(30.1394 0.0359277 -9.96884e-09)
(25.0209 1.32447 -0.00036226)
(22.0058 0.312104 2.39771e-06)
(27.1985 0.53394 -1.00523e-05)
(26.8736 0.14348 5.12783e-06)
(29.4471 0.0754654 6.80143e-07)
(29.9778 0.380796 -7.27225e-05)
(30.2284 0.102054 8.22843e-06)
(26.7756 0.499678 4.73939e-05)
(30.0637 0.458981 -3.74239e-05)
(30.5414 0.0282826 -1.39638e-07)
(30.2932 0.338592 3.52047e-05)
(16.0494 -0.21875 2.90439e-07)
(30.0757 0.170669 1.58945e-06)
(27.5608 -0.0956547 1.34987e-05)
(24.0824 0.105509 -2.95568e-06)
(21.3084 0.0556692 -9.1601e-07)
(29.3955 0.246486 -2.79254e-05)
(31.2423 0.255661 -0.000798087)
(31.0912 0.182773 -2.00258e-05)
(4.38594 -0.0731888 -1.12727e-09)
(29.7421 0.159952 6.69311e-06)
(30.6442 0.422563 -3.06256e-05)
(30.3473 0.6379 3.72133e-05)
(2.47584 -0.514428 1.18097e-07)
(30.5682 0.0549148 1.50031e-07)
(30.2725 0.487814 1.67452e-05)
(30.8988 0.215298 7.86393e-07)
(20.775 0.176247 -4.86584e-08)
(30.7038 0.0209436 -4.12939e-07)
(30.5014 0.0686147 1.19856e-06)
(31.0732 0.641314 -5.60935e-06)
(25.1949 0.432192 -6.33099e-05)
(28.0847 -0.188137 3.22609e-05)
(28.1288 0.0884214 -5.62989e-06)
(22.2123 0.935759 2.80134e-05)
(30.0187 0.757321 -0.000389462)
(31.0824 0.170232 9.97107e-06)
(28.105 0.214518 -3.28381e-05)
(29.9292 0.501466 -0.000129034)
(25.3562 0.492053 -5.80412e-06)
(28.5707 0.101797 7.34244e-06)
(31.0632 0.0174183 -1.29107e-07)
(29.0776 0.3204 -2.61484e-05)
(14.3912 0.396049 5.63731e-06)
(23.3441 0.0379233 4.84248e-07)
(31.1179 0.0106554 7.39659e-06)
(30.5695 0.922651 0.000330682)
(14.6587 -0.0760781 2.49958e-07)
(22.7811 0.285935 -9.73278e-07)
(30.4178 0.107687 1.50686e-06)
(22.3419 0.427706 -1.40514e-05)
(31.0129 0.185232 -3.12295e-05)
(27.2835 0.137489 -9.47436e-07)
(19.6785 0.367847 -5.57064e-06)
(30.6162 0.068353 2.88674e-07)
(21.7206 0.964167 1.32108e-05)
(28.5864 0.127796 3.2748e-06)
(5.78832 -0.0181909 -1.98408e-08)
(29.8443 0.181679 -2.11462e-06)
(28.2303 -0.0731076 -5.67705e-07)
(10.9768 0.0981276 2.45671e-10)
(27.8933 0.47865 2.85442e-05)
(27.8301 0.210991 1.53412e-05)
(31.131 0.00931512 1.08426e-05)
(11.0885 -0.190812 9.79421e-08)
(29.6793 -0.0626975 -5.35933e-06)
(23.5908 0.141061 1.53946e-05)
(30.9828 0.523842 -0.000287924)
(11.4444 0.152354 -1.91743e-07)
(29.4711 0.0824034 3.10118e-06)
(29.3173 0.26688 -5.35665e-05)
(31.0821 0.272759 -9.19529e-05)
(31.1949 0.434269 -0.00430468)
(26.2556 -0.278577 1.93965e-05)
(29.1815 -0.523879 -7.63576e-06)
(29.8676 0.610873 1.12229e-05)
(21.2711 -0.0753378 -7.82519e-07)
(29.7237 0.473838 -9.85408e-05)
(28.6709 0.459535 -8.19683e-05)
(29.5225 0.151456 -2.12687e-05)
(31.2367 0.212868 -4.23391e-05)
(25.9539 0.319506 -1.87416e-05)
(7.57012 -0.257765 1.29792e-06)
(30.8014 0.394023 1.34399e-05)
(30.5138 -0.278046 -5.94315e-05)
(31.29 0.122902 -0.000195342)
(30.4015 0.0580835 -1.83669e-06)
(31.2285 0.0370754 -9.46968e-07)
(24.9334 0.66449 -3.06561e-05)
(26.7786 0.118079 2.60543e-06)
(26.0053 0.196643 -5.58359e-06)
(30.6085 0.206617 -1.47389e-05)
(30.7814 0.0402316 7.18075e-08)
(30.7021 0.040542 -4.59933e-08)
(30.5641 0.123071 -1.146e-06)
(30.9722 0.156923 -1.17038e-06)
(30.2812 -0.0986329 -1.18733e-07)
(3.26351 -0.098469 3.70721e-09)
(28.5722 0.0724397 1.209e-06)
(30.6864 0.210181 2.08795e-06)
(28.3746 -0.00531939 2.00478e-08)
(30.7518 0.523548 -2.53162e-05)
(30.1923 0.0356171 -3.79914e-07)
(1.18436 -0.147797 -1.95879e-08)
(22.7316 -0.00375719 -4.85345e-08)
(23.2895 0.945312 -9.29175e-07)
(21.6548 0.435752 -4.13786e-05)
(30.4055 0.0382161 -1.80359e-07)
(28.8422 -0.162797 5.32745e-05)
(30.6866 0.132689 -4.79856e-05)
(30.4412 0.120677 -6.01616e-09)
(23.5833 -0.335219 -1.56578e-05)
(30.7907 0.875496 1.36464e-05)
(18.0453 -0.101635 5.8899e-07)
(29.475 0.373286 -1.25016e-05)
(7.62302 0.213195 3.84742e-07)
(31.1193 0.0998719 1.0064e-06)
(17.4669 0.102212 -9.71867e-07)
(29.4627 0.198 7.92413e-06)
(30.8306 0.157922 -5.81055e-06)
(30.3542 0.010652 -9.46801e-08)
(17.6983 0.0818187 2.81927e-06)
(7.50683 0.0417392 2.48043e-08)
(20.5731 0.219666 -5.92153e-06)
(27.5007 0.361688 -8.34695e-06)
(31.1135 0.500915 0.000221746)
(25.6965 0.331086 1.45031e-06)
(28.993 0.132331 -3.4322e-06)
(28.9388 0.0669763 2.05469e-06)
(26.7753 0.125444 1.30491e-06)
(20.4205 0.558218 7.0023e-06)
(30.1352 0.710628 -1.37867e-05)
(3.76998 -0.397273 -1.32701e-06)
(20.0539 0.483497 -1.0442e-06)
(22.4165 0.248191 1.52947e-05)
(15.1889 0.335534 -2.7295e-07)
(27.7955 0.0846754 -2.38251e-06)
(31.1779 0.73958 -0.0022519)
(31.2347 0.398493 -0.00148362)
(11.8532 -0.632559 2.5673e-06)
(26.5578 -0.0525941 5.07849e-06)
(17.8017 -0.184252 1.58981e-06)
(30.8985 0.0307359 -1.78515e-05)
(28.0579 0.111746 8.921e-07)
(11.1317 0.145018 6.18185e-08)
(31.1171 0.449906 -2.74359e-05)
(21.2678 0.12241 2.11735e-07)
(31.1346 0.0506159 -2.22192e-06)
(31.3121 0.0226226 1.26955e-06)
(29.2216 0.0539583 -2.69514e-07)
(23.3052 0.125719 -1.39044e-06)
(30.6995 0.151831 -8.49132e-06)
(12.9186 -0.384753 -2.5812e-07)
(21.1169 0.101536 2.42552e-07)
(30.8861 0.153257 1.57504e-05)
(31.2266 0.220592 2.76211e-05)
(30.8911 0.236085 4.01404e-05)
(29.8125 0.185515 -1.05344e-05)
(30.6008 0.525136 5.04e-06)
(30.679 0.110846 -5.05443e-07)
(20.5439 1.08098 3.06447e-05)
(23.6775 0.611472 5.16668e-06)
(31.2365 0.152073 2.92322e-05)
(30.9899 0.209116 -1.09808e-05)
(3.63039 -0.147231 -1.0383e-08)
(3.28502 -0.108348 5.21311e-08)
(6.77919 0.0284708 2.12613e-09)
(31.066 0.0290835 1.04481e-07)
(31.2087 0.722511 0.00076475)
(30.7939 0.614488 5.43976e-06)
(30.68 0.221191 7.74813e-07)
(30.9069 0.0218583 7.14243e-09)
(6.60073 -0.430366 -1.41062e-07)
(28.7776 0.740107 -9.16356e-05)
(30.3756 0.0562377 1.59037e-06)
(23.0477 -0.323648 -1.07421e-05)
(31.1413 0.0622165 9.01202e-06)
(25.7792 0.222562 4.07427e-05)
(31.0686 0.334788 -0.000119818)