/*--------------------------------*- C++ -*----------------------------------*\
| =========                 |                                                 |
| \\      /  F ield         | OpenFOAM: The Open Source CFD Toolbox           |
|  \\    /   O peration     | Version:  1.7.0                                 |
|   \\  /    A nd           | Web:      www.OpenFOAM.com                      |
|    \\/     M anipulation  |                                                 |
\*---------------------------------------------------------------------------*/
FoamFile
{
    version     2.0;
    format      ascii;
    class       vectorField;
    location    "0.33/lagrangian/defaultCloud";
    object      Uturb;
}
// * * * * * * * * * * * * * * * * * * * * * * * * * * * * * * * * * * * * * //


29889
(
(-1.38589 3.41223 3.25313)
(-1.12125 -2.25116 1.26132)
(-0.0490402 -0.0123175 0.262354)
(0.621574 -0.587079 0.923012)
(-1.31031 2.90149 -0.427787)
(-1.39965 -1.13167 -1.47186)
(-0.414009 -0.293774 -0.351532)
(1.3103 0.183228 -0.205813)
(-0.328502 0.178161 0.19597)
(-1.60556 -1.29212 -0.2036)
(-0.281508 0.0122487 0.121954)
(0.290441 0.87136 0.655433)
(-0.991471 -1.00329 0.228832)
(-0.265583 -3.00606 0.152851)
(1.09381 1.1411 0.505534)
(-0.496804 1.85381 3.67982)
(-4.21091 2.27551 -2.08905)
(0.875852 0.552649 0.195057)
(0.280837 -0.121795 -0.413445)
(0.676824 1.12953 -0.886742)
(0.0588444 -0.0498965 0.0419822)
(0.242279 -0.0321834 0.788833)
(-1.03168 1.24858 0.00259422)
(-0.0591775 -0.118423 -0.0775223)
(-1.26524 -1.13568 -0.550799)
(-1.85099 -1.40783 -1.30627)
(1.49569 -0.438462 -0.651285)
(0.592011 -1.2671 -0.628348)
(-3.32983 0.622141 -2.46599)
(0.276153 0.386309 -0.457859)
(2.47644 3.39718 1.19892)
(-0.100715 -0.0669518 -0.0269194)
(1.23802 0.0313938 0.135577)
(0.242025 0.209816 -0.0880069)
(0.0366885 -0.254668 -0.430329)
(-1.13244 -0.602705 0.360893)
(0.103273 0.0566523 0.156213)
(0.871784 0.710386 -0.985054)
(-0.520324 -0.380339 0.34195)
(0.660131 0.596829 -0.394863)
(0.608202 0.560144 0.752853)
(-4.72046 1.7447 -2.14712)
(-1.17883 -2.45774 -2.69111)
(-0.0200287 -1.03339 0.500836)
(0.51964 0.0468812 0.336139)
(-1.36708 0.374453 -1.05032)
(-0.0415656 -1.90724 0.341318)
(-0.722619 -0.361577 0.00979537)
(-0.119573 -0.307392 0.214732)
(-0.00177781 0.00655977 0.00372479)
(2.68213 0.720977 -0.943548)
(-0.368806 -0.957751 -1.09064)
(0.0577952 0.00753454 -0.0604965)
(-0.320967 0.067848 0.290302)
(-0.443395 0.43098 -0.0120829)
(-0.393803 0.402431 0.631511)
(0.438097 0.013737 1.63035)
(1.87345 3.26331 1.50405)
(-1.25842 -0.981879 -0.0255389)
(-3.21918 -1.45702 0.208622)
(0.0290335 -0.295909 -0.681994)
(-2.30926 2.22481 1.3508)
(0.0913729 -0.343097 0.0149374)
(1.38712 -1.66861 -0.873832)
(-1.28704 0.113076 0.176726)
(-0.775007 0.984002 0.216853)
(-2.1006 -1.15495 0.096538)
(-0.154869 -0.249829 0.289374)
(0.0209145 -0.223986 0.192056)
(0.0037553 0.00483328 -0.00248649)
(0.0657689 -0.0581253 0.101082)
(1.40217 0.818898 1.40329)
(0.787938 0.937912 0.852612)
(0.33634 1.16006 0.532346)
(0.778507 -1.27393 -0.768647)
(-0.780356 -0.443622 -0.0734839)
(0.0337892 0.020326 -0.111134)
(-0.328261 0.447574 1.06237)
(-0.116862 -0.302236 -0.257898)
(1.83923 0.826921 0.758267)
(-1.168 0.0673001 -0.591513)
(-0.366566 -0.484157 0.217156)
(-0.0430715 0.0421838 -0.0223708)
(0.382869 -0.261132 -0.772947)
(-3.40909 -4.50468 -3.708)
(-2.16089 1.03984 1.69594)
(-2.63974 -2.54254 2.55471)
(1.01404 -1.68825 -0.25935)
(0.33118 -0.00217014 -0.503645)
(-0.138106 0.205439 0.423878)
(0.241524 0.175308 -0.137213)
(0.361804 0.366546 -0.38352)
(0.406613 0.306291 0.570752)
(-0.474158 0.29646 -1.00122)
(0.423198 0.0141848 0.675729)
(-1.54721 1.71489 1.91351)
(1.2924 -1.73236 -1.74559)
(-1.33842 -4.48741 -0.197281)
(0.238628 0.36703 0.399879)
(-0.510182 -0.0113437 -0.137478)
(1.40385 2.49438 1.30091)
(0.241368 2.11873 2.12836)
(0.0144689 0.181814 -0.991359)
(-1.93374 1.45021 2.38442)
(0.41788 0.460213 -0.8409)
(-1.76816 0.77843 0.163087)
(-0.362921 2.37427 -1.17012)
(-0.524687 -1.49792 3.20621)
(-0.889774 -0.23112 0.180825)
(-0.292079 -0.123424 0.66613)
(-0.0220253 -0.553822 -0.932152)
(0.0454146 0.110497 0.0342829)
(-0.957266 1.19698 1.7103)
(3.71149 2.27353 -0.860352)
(-0.00754449 0.134613 -0.00754783)
(-0.419851 2.22037 1.1197)
(0.583954 -0.591737 -1.17956)
(-1.63774 1.51283 1.7204)
(0.792055 -1.16621 -0.204919)
(0.341318 0.237997 -0.339633)
(1.95169 -4.0681 -4.88816)
(0.189375 0.365383 0.653059)
(-0.409146 -0.204499 -0.425734)
(-1.64937 0.343874 0.765776)
(0.187647 0.63105 -0.990737)
(0.155869 0.206136 0.1075)
(-0.0949763 0.00791128 -0.0605111)
(0.36784 0.335303 0.266333)
(0.199711 -0.513318 0.394504)
(2.01119 4.01274 -0.0408152)
(0.745778 -2.83193 -3.66298)
(-0.349248 0.225303 0.200369)
(-0.960613 -0.719971 -0.956399)
(0.565281 -0.999513 -0.734507)
(1.15093 0.898813 0.249745)
(1.15618 -0.218846 0.545223)
(-0.300037 -0.585474 -0.186007)
(-0.817669 0.482644 -0.296657)
(0.182348 2.11419 1.90938)
(-0.180429 -0.462369 0.223887)
(-0.00839128 -0.0334661 -0.212238)
(0.444716 0.86075 -0.167537)
(-0.22412 -0.361282 -1.04821)
(0.0941893 -0.262708 0.193558)
(-0.836577 0.0934357 0.809562)
(-0.0897075 0.0474097 0.0155316)
(0.403086 0.836063 -0.462604)
(-0.348187 -1.35841 -1.48855)
(-0.894323 -1.95361 -1.12282)
(0.329461 -0.315696 0.679185)
(-0.248178 0.0808556 -0.231078)
(0.684635 1.49614 1.85327)
(-1.50408 0.820174 -0.425975)
(-4.33869 -4.55861 2.13251)
(0.0023169 -0.00262874 0.00148523)
(1.03562 0.926851 0.3093)
(1.73365 -2.61058 -2.69467)
(-2.17995 -2.16249 1.10414)
(0.0890154 -0.364974 -0.54314)
(0.0193232 0.199499 -0.154169)
(0.192846 -0.16923 -0.0727224)
(-0.0992892 2.35438 1.99409)
(2.53555e-05 0.00483593 -0.00414975)
(-0.0106269 -0.71399 0.0912959)
(1.36203 -2.22926 -1.0465)
(-0.431933 -0.705597 0.48113)
(0.365217 -0.51873 -0.45368)
(-1.64576 -2.60913 1.26651)
(0.817851 -1.53428 -4.20349)
(1.16206 -0.344293 -1.12149)
(-0.407185 -0.660165 -0.62572)
(-0.637696 -0.0949436 1.08421)
(0.700325 -0.299831 -0.290523)
(0.00906244 -0.0278401 0.191949)
(-2.26261 -2.12056 0.833593)
(-2.03814 -0.13642 -0.809568)
(-0.108928 0.211841 -0.137594)
(1.37963 -0.96581 -0.637852)
(2.42339 -2.63655 -0.909403)
(-1.73378 -2.91536 -3.63895)
(0.0943658 0.182914 -0.0431215)
(1.3457 -0.95492 -0.441596)
(2.62177 -2.4684 -1.55687)
(0.518108 0.853135 -1.04397)
(0.888362 -0.52365 -0.234357)
(1.93142 -0.0543182 0.82462)
(-2.91605 1.21187 2.52539)
(0.000815533 0.00115651 -0.0015644)
(-0.49384 0.353094 -0.783477)
(-0.335688 0.136572 -0.144974)
(1.66719 -0.305824 -1.96379)
(-0.47762 1.06247 -0.71931)
(0.0834081 -0.301502 0.0785438)
(-0.16364 -0.0320446 0.596733)
(1.2363 -3.22332 1.7455)
(0.225719 0.160284 -0.0503028)
(1.05517 -1.63606 -0.0930959)
(0.569507 -0.577006 0.659673)
(0.859697 -0.526355 -1.25757)
(-0.417755 0.137996 0.224584)
(0.355468 0.474591 -0.0354521)
(-0.146921 0.426038 -1.32123)
(0.0889551 -0.0521841 -0.0976567)
(-0.954961 -0.534518 0.605564)
(-0.0369011 -0.014469 0.0391082)
(-1.28054 -1.83306 -1.44072)
(0.0251916 -0.102119 -0.0672679)
(-0.978251 -2.05476 -0.251734)
(1.73525 1.18008 1.81418)
(-0.0449988 -0.301654 0.102558)
(-0.674052 -0.569162 -0.138088)
(-0.0180268 -0.0976055 -0.597861)
(0 0 0)
(0.153609 -0.326791 -0.142627)
(0.115845 0.118933 0.0169357)
(-2.48143 -0.0387627 0.37322)
(-0.0787965 0.272124 0.117312)
(1.32953 1.34815 -0.0117707)
(-1.10826 1.63018 0.0332315)
(-0.165369 -0.208528 0.268856)
(0.100583 -0.586846 -0.435069)
(4.32024 -3.76778 3.57916)
(-0.314379 -2.04386 -0.6884)
(-0.245508 1.21 0.69282)
(-1.85742 0.633406 -1.21237)
(0.637305 1.96571 -1.79696)
(0.74123 -0.759845 -0.920657)
(1.54082 0.0117641 -1.74457)
(-0.790974 0.770222 -0.226662)
(3.54964 1.53021 -1.43751)
(1.30416 3.33008 4.2893)
(0.0342261 -0.0625507 0.0155969)
(-0.688397 -1.16718 -1.66281)
(-0.307457 -3.68559 2.17837)
(-1.42814 -1.32402 2.04245)
(0.0118739 0.0104928 -0.0228373)
(-3.60829 -3.57265 1.47007)
(3.8257 0.297866 -1.95608)
(0.306048 -0.0544338 0.258325)
(0.211624 -0.59599 0.579416)
(-0.598717 1.03542 -0.399296)
(-0.00980418 0.00454909 0.0120338)
(0.0239153 0.187546 -0.139011)
(0.343388 1.01827 -1.064)
(0.239511 -1.81328 -0.865903)
(-0.0158907 0.0284032 -0.60826)
(1.07774 0.0946522 1.12891)
(-0.245899 -0.312983 0.0399274)
(-2.42056 -2.21619 -0.322892)
(-1.15329 0.239964 -0.324522)
(-3.1242 -2.68437 -0.0895607)
(2.24125 -1.40424 -1.43994)
(1.10852 -1.40901 -1.08011)
(0.295751 -0.221584 -0.208655)
(0.834789 -0.489318 -0.295124)
(0.192794 0.0221673 -0.0351338)
(-0.455128 0.345441 -0.399395)
(1.55529 -0.967442 1.71736)
(0.889785 -0.865392 -0.250681)
(0.266103 0.233166 -0.0675534)
(0.686913 -0.607525 0.245499)
(-0.616263 0.299688 -0.704512)
(-5.72806 3.31396 -1.56827)
(0.199763 -0.697815 0.651902)
(0.0737244 0.147095 0.0385216)
(0.0218974 -0.371545 -0.19406)
(-0.446501 0.838879 1.12991)
(1.33929 -0.525853 -1.14279)
(0.943112 -2.07343 -2.10208)
(0.0745606 0.765539 -0.309912)
(-1.41564 0.485715 -0.259514)
(-0.494711 -0.0930958 0.426682)
(-0.474219 2.16751 -1.7359)
(-1.65973 1.24902 0.30502)
(1.69072 0.754536 -0.712628)
(-0.798829 0.511443 0.765122)
(-0.283179 -0.183255 0.0395034)
(-1.65698 0.482508 3.33622)
(-0.255308 -0.00875563 -0.167921)
(-0.0196875 0.711653 0.324769)
(0.968629 0.503882 -2.23702)
(0.807599 0.247946 1.32862)
(0.325435 1.29112 1.05856)
(-0.563467 -0.480935 -0.237262)
(-1.31261 -0.112607 -1.34326)
(0.127212 -0.430823 -0.293545)
(0.554528 -0.4015 0.758682)
(-2.04328 -0.289169 1.39102)
(2.72408 2.66647 0.607127)
(0.272416 -0.967241 0.303958)
(-0.433659 0.189613 0.420987)
(-0.212406 0.267491 0.157071)
(0.316326 0.260705 -0.296952)
(2.65219 -4.65406 1.86044)
(0.22677 -0.0986085 -0.299749)
(-1.40045 0.401608 -3.56955)
(-2.46028 0.659725 -1.14037)
(-0.00513615 0.132635 0.0710437)
(0.61014 -0.101795 0.966915)
(0.423527 0.120205 0.607673)
(-1.85829 -2.55812 3.53539)
(-0.829282 -0.142337 1.45364)
(0.76357 0.86749 0.638563)
(1.87788 -2.32059 5.76064)
(1.08135 -0.812707 -0.26543)
(-0.258097 -0.417263 0.323302)
(2.84078 -3.18662 1.86772)
(0.101937 0.913727 -0.471769)
(-0.0861295 1.55351 -1.86291)
(0.293576 0.128186 0.310851)
(0.216206 0.253053 -0.2079)
(-3.6223 -3.80499 1.7704)
(-0.0404561 -0.453635 0.355542)
(0.0923119 0.245608 0.0684592)
(-0.170915 -0.268573 -0.294738)
(-4.29522 1.39071 0.104638)
(0.507387 -0.189397 0.53192)
(2.18895 1.00161 1.0938)
(0.39828 -0.344781 -0.499066)
(-0.275373 -0.151249 0.231899)
(-0.666642 -0.130643 -0.539271)
(-0.581567 -0.399223 -0.170813)
(2.8092 -0.35215 -1.93755)
(2.98736 0.467204 -1.35369)
(0.100286 -0.681843 0.548907)
(-1.02457 0.644272 -0.809064)
(-1.42066 -2.22089 2.04079)
(3.1026 2.37832 -3.76407)
(0.764958 -0.881717 -0.140602)
(-0.82742 -0.457171 -0.328679)
(-0.717683 -0.206405 0.198198)
(0.815415 0.80108 -1.32707)
(2.71465 -4.00662 -4.10937)
(-2.81524 2.37011 -2.30135)
(-0.629241 1.16695 0.160811)
(3.67317 1.89684 0.799304)
(-1.28533 -1.93179 0.323733)
(0.743412 -0.706858 -0.920447)
(0.371688 -0.0847726 1.08825)
(-0.096961 0.147196 0.138623)
(-0.756666 -0.959863 1.6115)
(1.00095 1.1187 0.0895294)
(-0.54891 -2.6685 4.51728)
(-0.175861 -0.0414934 1.50211)
(0.439552 1.10668 -0.53681)
(-2.64841 -0.377404 0.402217)
(-1.06283 -1.09866 1.19346)
(0.384949 -0.939209 -0.802933)
(0.760666 0.625409 -2.43228)
(-1.31308 -0.145191 -0.883049)
(0.128928 -0.237703 -0.132679)
(-6.1249 4.49047 0.253142)
(4.05653 2.49821 3.26168)
(3.81867 2.18707 -0.172588)
(5.08868 -3.89123 1.18546)
(0.283639 -0.0214242 -0.400302)
(3.94122 -1.44305 -3.73562)
(-2.21415 0.557757 -2.88612)
(-2.74987 -0.54462 -1.53617)
(0.103633 0.269884 0.344542)
(-0.0497246 -0.0326789 -0.707676)
(0.38328 -1.35989 0.817719)
(0.637508 0.221706 0.947089)
(-0.350475 -0.0680038 0.00937453)
(-1.50165 -1.67087 0.393234)
(3.53219 2.55738 -1.37827)
(0.0284579 -0.414372 -1.25113)
(-0.606059 0.421161 0.802563)
(0.0701473 0.04395 -0.0801252)
(0.912881 0.623372 0.355248)
(0.860221 -0.10565 -0.625804)
(0.0238606 0.0839194 0.0651613)
(-2.53931 0.752823 0.166609)
(-0.185388 -0.843428 -0.467008)
(0.743313 -0.061662 -0.0662747)
(0.438003 -0.180892 0.699908)
(-1.17788 -1.92512 -1.29409)
(0.400751 1.49445 -4.10525)
(-0.325146 -0.774085 0.960007)
(0.463093 2.86394 1.5936)
(-1.68892 3.34586 -3.06919)
(-0.534027 2.925 1.95711)
(3.88869 1.56248 -2.94548)
(0.594518 -0.435914 2.29869)
(-0.427029 -0.43886 1.04524)
(-0.528591 -0.931058 0.491648)
(0.0593138 -0.0656873 -0.159093)
(0.770632 -4.3541 2.03665)
(-1.01454 -0.924291 0.33708)
(-3.41192 3.08536 -0.777698)
(-0.455491 0.29239 -0.135624)
(0 0 0)
(0.055944 0.144605 -0.148103)
(3.68178 -1.1079 0.773033)
(-0.00570892 0.00712128 -0.00758237)
(2.37509 0.0854144 -2.31874)
(-0.0666646 -0.408674 -0.34056)
(0.458936 -0.609311 -0.906251)
(-0.81118 -0.181837 0.557488)
(0.316537 -0.236455 0.131684)
(0.985215 -1.24104 1.54335)
(-0.681998 0.642709 -1.15952)
(-0.43779 0.222607 1.01097)
(0.133836 0.597418 -1.10405)
(-0.2929 0.677162 0.611454)
(-0.192755 -0.245511 0.073127)
(-2.61524 2.181 1.41175)
(4.41961 -4.91109 -0.591338)
(-0.450541 -0.649251 1.18392)
(0.107548 -0.798193 0.135471)
(-0.202854 -1.54369 -1.58531)
(0.591194 -1.1473 1.71585)
(0.245237 -0.867134 -0.945604)
(-1.75727 0.773551 0.336644)
(1.24626 1.6484 -0.120116)
(0.646036 -1.43867 -0.901313)
(0 0 0)
(-1.69676 0.774672 0.547489)
(-0.211148 2.97136 0.210298)
(0 0 0)
(-2.31158 0.724054 0.42658)
(-0.593101 0.006477 0.0540071)
(-2.26026 -2.61567 -1.80868)
(2.87412 -2.4229 4.6293)
(-0.947553 -1.99922 -2.08782)
(-1.57459 -0.0770027 -1.01874)
(0.239756 -0.0871897 -0.129737)
(-1.04307 -1.6321 -1.13534)
(0.17736 0.408881 -0.430727)
(-0.064429 -0.613437 0.51187)
(0 0 0)
(-1.32851 0.435169 2.90448)
(4.71332 -3.15774 -1.55479)
(2.69924 -2.18473 -0.933537)
(0.146152 0.547846 -1.45879)
(-0.730296 1.41809 -0.115187)
(-1.01401 -1.21429 -0.938283)
(-1.73384 0.960918 0.998269)
(-1.05348 0.878968 -1.05057)
(-1.91468 4.21685 -2.22124)
(0.0482902 -0.241926 0.463408)
(-1.79314 -0.703385 1.91621)
(0 0 0)
(-0.925847 0.0291641 1.22613)
(0.116719 -0.0813253 0.0105139)
(0.143746 0.334345 0.522265)
(-0.252493 -0.698617 -0.428311)
(0 0 0)
(-0.13032 -0.375024 0.373071)
(-0.0633846 -0.0188475 0.014614)
(-0.246125 0.263456 -0.0392828)
(0 0 0)
(-0.958881 1.09443 -0.838422)
(0.879741 -0.816143 0.388893)
(3.06367 -1.45672 -1.57216)
(2.44034 -0.489627 -0.882436)
(0 0 0)
(0 0 0)
(0.95783 -0.267727 0.0510666)
(-0.536948 1.106 -0.667042)
(0.069865 0.119151 -0.166456)
(1.5809 -0.778829 -1.35853)
(-0.00447367 0.0989116 -0.998046)
(1.071 0.0747122 -0.710963)
(-1.10083 0.730965 0.935979)
(-0.0867887 0.0495886 0.0606327)
(0.153729 -0.7538 -0.975778)
(2.47332 2.9591 -0.232303)
(1.04062 0.717354 0.0861096)
(0.302197 -0.29548 0.0188112)
(-1.35095 0.438793 -0.897424)
(0.521005 3.03048 -1.28994)
(-0.682249 -0.84629 -0.888869)
(-0.289639 0.0878335 -0.133349)
(1.70828 2.0041 -3.33178)
(-0.621974 0.410978 -0.994646)
(0.363532 0.255465 -0.300452)
(-0.519506 -0.140449 0.658139)
(-0.0742045 0.244111 -0.155614)
(0.172429 0.19038 0.0168613)
(1.63245 -0.672207 1.80975)
(1.44759 0.26574 -1.96143)
(1.65595 -0.590508 0.560853)
(0.291796 -0.369411 0.574438)
(0 0 0)
(0.459105 0.475839 -0.449205)
(0.313873 0.525892 -0.0811738)
(0.0220221 -0.0658594 -0.0806444)
(-1.01134 0.107524 -1.38192)
(2.08706 -1.65379 1.89155)
(2.71586 1.96081 -2.60599)
(-0.586329 -1.37172 0.462827)
(0.226244 0.379155 0.0416977)
(0 0 0)
(0.486157 -0.327852 0.0560076)
(0 0 0)
(0.918009 -0.569069 0.624438)
(0.556113 2.46439 3.75355)
(-0.707471 0.940909 -1.72707)
(-0.0721013 0.696295 -0.0238876)
(-0.0720029 1.04519 -0.463134)
(0.120809 0.950516 -1.34463)
(-0.855551 0.133344 0.67145)
(0.193799 1.56473 -0.248785)
(-0.183592 0.0469808 0.175482)
(3.32611 -0.283109 -0.342113)
(-0.611902 -0.20327 -0.0930843)
(0.350979 0.256649 0.153042)
(1.85328 0.777789 -1.91217)
(-3.95306 -4.09819 -1.68789)
(1.02832 0.44111 0.437239)
(0.206903 -0.718967 -0.372229)
(0.220434 -0.313188 0.0491871)
(0 0 0)
(0 0 0)
(-1.52273 1.46726 0.79849)
(0.0514746 -0.0626972 0.0169851)
(0 0 0)
(-1.28644 -2.87108 0.763401)
(0 0 0)
(0 0 0)
(-0.838567 -0.985428 -1.35004)
(1.07817 2.12374 0.21445)
(-0.373503 -0.373638 -0.114221)
(-0.494011 -0.872888 -0.194089)
(0 0 0)
(-0.0232796 -0.058192 -0.0292279)
(-1.02334 1.65681 -2.36866)
(2.81316 1.86716 -0.376264)
(-0.176552 -0.161775 -0.0372963)
(0.0414449 0.0573294 0.0735887)
(0.374634 0.468053 1.3062)
(-0.30652 -0.864127 -0.907481)
(2.27855 1.01833 0.0762598)
(-2.83534 -0.113039 -0.0252165)
(0 0 0)
(-0.556272 0.0802785 0.21038)
(5.44022 -2.57708 -3.16159)
(-0.11132 0.7777 0.150127)
(0.161519 -0.0648291 0.142654)
(1.23914 -1.04326 0.688196)
(-0.191379 -0.168484 -0.0503921)
(0.0258261 0.230164 -0.19944)
(0.780693 -0.392048 1.18383)
(0.7716 -3.87567 -4.58626)
(5.84543 1.29832 -0.495893)
(-3.29425 1.58436 0.773492)
(-1.88075 -0.824133 0.226482)
(1.7407 0.745024 -1.56683)
(0.999791 -0.186902 0.49865)
(0 0 0)
(-0.0701988 0.00177997 -0.154602)
(-0.000937654 0.239334 -0.24669)
(-2.28886 -0.665458 -0.00192435)
(0.311284 2.33016 2.5124)
(-0.0983039 0.0283708 0.294793)
(0.309232 0.509345 0.429465)
(0 0 0)
(-0.839301 1.33901 0.211755)
(2.35041 -3.69756 3.43775)
(2.10639 2.05248 -0.64102)
(0 0 0)
(-0.136106 0.365641 0.272782)
(2.32393 -2.92534 -0.375321)
(-0.0232296 0.00270594 -0.0453824)
(1.67642 -0.701862 1.69791)
(0 0 0)
(0 0 0)
(0.0835798 0.0145872 -0.0529629)
(-2.87164 2.12438 -0.339012)
(0.0642187 0.075271 -0.194289)
(-0.213298 -0.0468018 -0.0874165)
(1.02168 -1.44034 -0.881215)
(0.636139 0.829951 0.262697)
(1.97453 -0.187168 0.887241)
(-0.222246 -0.723549 -0.843675)
(0.64021 -0.0989725 0.380802)
(-0.959309 1.18801 0.366582)
(0.542164 -0.703865 1.38204)
(-0.800578 -1.06806 0.378089)
(0.297072 -3.1945 -5.02565)
(-0.100276 0.0316819 -0.0138716)
(0.163577 -0.875658 -0.396629)
(-1.09748 -4.1337 0.260784)
(0 0 0)
(0.0714049 -0.40701 0.897327)
(0.146509 0.890525 -0.228546)
(0.294498 -0.0573935 0.00518637)
(0 0 0)
(0.176293 0.11425 0.0408146)
(-0.82005 0.838798 1.02182)
(0.273446 -0.830578 1.09306)
(0.99511 -0.388727 2.12538)
(2.75102 -2.74842 1.71448)
(0.173014 -1.0402 0.590838)
(3.72049 -0.712196 -6.56959)
(-0.00119302 -0.00625721 -0.0844138)
(0 0 0)
(0.16431 0.389804 -0.271279)
(0 0 0)
(2.63897 -0.232671 -0.303815)
(-0.140716 -0.110256 0.149608)
(0 0 0)
(1.71238 3.76297 2.87969)
(-0.782089 -2.62193 -2.49221)
(0 0 0)
(0 0 0)
(-0.141988 -0.120281 -0.127608)
(1.06702 -0.0652303 -2.58666)
(0 0 0)
(-0.071435 0.111944 0.0885732)
(2.19214 -2.45772 3.48946)
(-0.342737 1.98831 0.666501)
(-0.404605 0.00550436 -0.239915)
(0 0 0)
(-0.911994 -2.58291 -1.61816)
(0.0845885 0.0430668 0.0147535)
(-0.188144 -0.0214162 -0.185411)
(-0.333431 -0.295205 0.698546)
(0.0694391 0.223427 -0.4017)
(0 0 0)
(0 0 0)
(-1.16677 -2.16484 -2.1401)
(0 0 0)
(0.742386 -2.09119 -2.33121)
(0 0 0)
(-0.877778 -0.651786 1.64021)
(0.193004 -0.0182456 -0.18844)
(2.04368 0.660796 -1.35726)
(-1.19733 -1.17563 -0.729316)
(1.38339 0.999746 2.47799)
(-0.0626988 0.0693366 -0.0634254)
(1.2143 -0.948293 -0.148159)
(1.00147 -1.57035 -1.33069)
(0 0 0)
(1.15365 3.36759 -1.71909)
(0 0 0)
(-0.215454 -0.213393 -0.145208)
(1.16583 -0.419218 0.0715292)
(3.91504 -1.62306 -0.977097)
(-2.94479 1.66255 -3.39197)
(0.102678 -0.00447369 -0.113202)
(0.90166 -1.2142 0.823571)
(-1.93601 -2.24042 -1.04259)
(-0.547658 -0.560248 -0.639302)
(0 0 0)
(-0.747436 -1.40552 -0.285597)
(0.433057 -0.181131 0.145934)
(2.6768 -2.53829 3.52302)
(0 0 0)
(-1.53625 -1.6245 -0.65025)
(0.507003 1.02645 1.18898)
(-0.913944 0.790162 -1.68331)
(-0.173952 0.286112 0.473817)
(1.39059 -0.477008 -1.44022)
(0 0 0)
(4.04863 1.70882 -0.674888)
(-0.937922 -0.750886 -4.11387)
(0.0510155 0.45266 0.463433)
(0.238598 0.960419 1.51193)
(0 0 0)
(-1.04105 1.28354 -0.504551)
(-0.100328 3.70098 1.24303)
(-2.322 0.254114 0.0157517)
(0 0 0)
(0 0 0)
(-0.0716112 0.701776 1.60311)
(1.9742 0.223578 1.67038)
(0.405433 1.17714 -1.66934)
(0.190694 -0.156189 0.0243478)
(0.797241 -0.00983917 -0.547019)
(0 0 0)
(-0.0838709 -0.0982049 0.00120388)
(-0.339679 0.239005 0.656008)
(-0.147481 -0.558308 0.00706675)
(0.042407 -0.277498 0.0471414)
(0 0 0)
(-0.396696 -0.0160105 -0.293545)
(-2.15812 -0.281651 0.236613)
(0 0 0)
(0 0 0)
(0 0 0)
(-0.0958873 -0.181934 -0.225352)
(-1.20524 -0.200813 -0.79222)
(-0.498713 0.370203 0.472918)
(1.27634 0.602417 -0.500585)
(-0.44147 -1.71501 2.82847)
(0 0 0)
(0 0 0)
(-1.30903 1.52502 1.73866)
(0.0603575 0.00405085 0.156783)
(0 0 0)
(1.19267 -0.898615 0.255139)
(-0.0171831 -1.12053 -0.942841)
(-0.159254 -0.11441 0.0294138)
(0 0 0)
(0 0 0)
(0 0 0)
(1.41011 0.667443 1.06664)
(0.00314654 -0.0577959 -0.0649131)
(0.278231 0.149313 -0.0501389)
(-2.86992 -0.835927 0.154748)
(-0.714836 -0.475177 -1.22655)
(0 0 0)
(-1.04893 -1.50127 0.66555)
(1.25873 1.78085 -0.766965)
(-0.349023 -0.16816 -0.186602)
(0.646739 0.586253 -0.687955)
(0 0 0)
(-0.192119 0.537554 -0.445896)
(0.866563 -0.408611 -0.674837)
(-0.689659 -0.553264 0.975999)
(0 0 0)
(0.804897 0.0918093 -0.554994)
(0.442221 0.167548 -0.289029)
(-0.368037 -0.807739 -0.575349)
(-0.0725951 -1.32088 0.412962)
(0 0 0)
(2.52846 -0.0462674 1.49117)
(-2.50624 1.16252 -2.16464)
(0 0 0)
(0.809043 -0.272109 0.785771)
(0 0 0)
(-0.23401 0.203976 -0.570268)
(2.65262 -7.10681 0.162653)
(0.63007 -0.492477 0.484235)
(-0.9526 -2.67435 -2.21887)
(-1.68823 1.45761 1.12293)
(0.158766 -0.0839974 -0.151344)
(2.36966 1.1878 -1.20607)
(0.922856 0.734089 0.591403)
(0.713425 -1.3088 -2.2794)
(0 0 0)
(0 0 0)
(0.322505 0.611934 -1.06654)
(0 0 0)
(0 0 0)
(0.489472 -0.785586 -0.278743)
(1.63244 1.19486 -1.99903)
(0 0 0)
(0.000556889 0.0019995 -0.000165289)
(0.481937 -0.522637 -0.340294)
(0 0 0)
(-0.991467 -0.314169 2.02947)
(-0.408307 -0.828378 -0.874519)
(-0.255839 0.555664 0.342766)
(-2.05932 2.33741 -1.24103)
(0 0 0)
(0.092865 0.265376 0.183797)
(0 0 0)
(-0.253156 -0.385164 0.0773979)
(0.122601 -0.0989347 0.113352)
(-0.716211 0.813564 -0.993197)
(0.126336 -0.377053 0.0430672)
(-0.251935 -0.352158 0.573361)
(0.0264174 0.0306701 0.0274094)
(0.250858 -0.359155 -0.0499994)
(2.80327 1.60559 -2.63224)
(-0.190168 -0.196343 0.989717)
(0.364602 0.314588 0.309418)
(0 0 0)
(0 0 0)
(0 0 0)
(-0.109329 0.0816122 -0.458547)
(0.103946 0.0734894 -0.553075)
(3.11199 1.25047 1.02811)
(0.008567 -0.0442201 -0.00744299)
(0 0 0)
(-0.129485 -0.068703 0.0338828)
(3.03535 1.13769 -2.12616)
(-0.877329 -0.222147 0.194526)
(0 0 0)
(0 0 0)
(0 0 0)
(1.69827 1.24761 -1.22597)
(-0.257213 0.213293 0.347206)
(0 0 0)
(1.83257 0.264356 -1.076)
(-0.0296908 -0.0485159 -0.0474436)
(0 0 0)
(0.81413 -0.971499 -1.0418)
(-0.47269 0.850199 0.973394)
(1.69535 1.29616 -0.555296)
(0.172433 -0.0340077 0.194048)
(0 0 0)
(0.595446 -1.29451 -0.962132)
(-0.511435 -0.384931 -0.345089)
(-0.0642938 0.00233895 -0.0803787)
(0 0 0)
(-1.56324 1.55051 1.38605)
(-1.0556 -0.99342 -0.0347099)
(-0.0208112 -0.0974553 -0.110456)
(0 0 0)
(2.09895 -0.678708 2.05682)
(0 0 0)
(0 0 0)
(-0.489653 0.612801 0.451889)
(0 0 0)
(-1.14799 3.37038 0.305059)
(0.635641 -0.197855 0.373095)
(-0.43296 0.41874 -0.446765)
(0 0 0)
(-0.861702 0.0330968 0.683503)
(0.274566 -0.609295 -0.0532235)
(-0.454058 -1.54984 -1.72071)
(0.136483 0.140737 0.151928)
(0 0 0)
(3.25828 -1.11594 -3.30842)
(1.8802 0.270812 -0.647339)
(-0.759892 -0.285253 0.290172)
(0 0 0)
(0 0 0)
(0 0 0)
(0.00449016 -0.00477661 -0.0242975)
(0 0 0)
(0 0 0)
(-0.204538 -1.27474 0.590206)
(-0.0325704 -2.40775 -0.820502)
(-0.241816 0.290093 0.138714)
(1.30384 0.526395 1.65498)
(-1.85844 1.00706 1.16173)
(0.443846 -2.13735 -1.21033)
(1.10871 1.6471 1.3)
(0 0 0)
(0.577665 -1.20916 -1.27282)
(0.626571 0.120187 0.598859)
(0.253087 -0.286918 0.39432)
(2.7659 -4.30604 2.55734)
(0 0 0)
(0 0 0)
(0 0 0)
(0.386622 0.752815 -0.346832)
(0.244502 -0.332765 1.64193)
(0.490354 -0.334629 0.488927)
(0 0 0)
(0 0 0)
(0 0 0)
(0.218708 0.1629 -0.0452069)
(0 0 0)
(-0.0350927 -1.34072 -1.37023)
(0 0 0)
(0 0 0)
(0 0 0)
(-0.311597 -0.847184 -0.878977)
(0 0 0)
(0 0 0)
(0 0 0)
(-0.498065 -0.515536 0.787379)
(-2.31943 -0.728255 -0.198218)
(-0.109254 -0.0201085 0.128661)
(0 0 0)
(-2.1767 -2.84224 -4.06471)
(0 0 0)
(-1.10771 0.356855 1.41796)
(0.116264 1.14426 0.190499)
(0.216288 -0.0197962 0.0344388)
(0.86802 -0.0887022 -1.30764)
(0.0904005 0.0592603 0.171329)
(-0.722064 0.101875 -1.18808)
(0 0 0)
(0.168928 0.206173 0.198269)
(0.786714 -0.0894292 0.991439)
(0 0 0)
(0.155182 -0.987429 0.98203)
(0.993032 -0.977065 -3.99649)
(-0.0643822 1.33877 1.57254)
(1.12302 -1.81708 -1.42838)
(-1.18845 0.565442 0.647506)
(0 0 0)
(0 0 0)
(0 0 0)
(0 0 0)
(-0.0315034 -0.0605583 -0.130077)
(-0.279783 -0.399965 0.190308)
(0.808426 3.41276 1.9615)
(0 0 0)
(-0.314682 0.770882 0.575161)
(-0.661375 2.4795 2.62471)
(0.00273141 0.0580651 -0.0786179)
(0 0 0)
(0 0 0)
(0 0 0)
(0.5326 -1.13709 0.2732)
(0.193779 -2.18038 2.4611)
(0.637169 -0.723181 -0.578601)
(0 0 0)
(-0.794961 -0.772305 -0.0812953)
(0 0 0)
(0 0 0)
(-0.00337673 0.00362795 -0.013832)
(0 0 0)
(0 0 0)
(0 0 0)
(0.0231817 0.222959 0.293724)
(0 0 0)
(0 0 0)
(0.776196 -4.70766 -1.26189)
(0 0 0)
(0 0 0)
(0 0 0)
(0.135446 -0.0681858 0.0235449)
(0.308215 0.629502 0.749017)
(0.0194463 -0.377033 -0.124602)
(2.94297 2.48836 -2.17208)
(0.248882 -0.341827 -0.231719)
(0 0 0)
(0 0 0)
(0 0 0)
(0 0 0)
(0 0 0)
(0 0 0)
(0 0 0)
(0 0 0)
(0 0 0)
(0 0 0)
(0 0 0)
(1.20137 1.4559 -1.26779)
(0 0 0)
(-0.304885 2.81545 -0.992289)
(0 0 0)
(0 0 0)
(0 0 0)
(0 0 0)
(0 0 0)
(0.285594 0.914186 0.867402)
(0 0 0)
(0 0 0)
(0 0 0)
(0 0 0)
(0 0 0)
(0 0 0)
(0 0 0)
(0 0 0)
(0.260208 -0.138862 -0.00699282)
(0 0 0)
(0 0 0)
(-0.287915 0.134983 0.0971371)
(0 0 0)
(0 0 0)
(0 0 0)
(0.42643 1.45244 -0.11923)
(-1.52717 1.69608 1.04861)
(1.03336 -1.81572 -1.31067)
(0.155935 1.22126 1.21421)
(-0.463959 0.277093 -0.962823)
(0.364556 0.452772 -0.181083)
(0.823158 -1.32839 1.17593)
(0 0 0)
(0 0 0)
(0 0 0)
(0 0 0)
(0 0 0)
(0.692709 -1.34494 1.86217)
(0.590673 -0.0887156 0.538813)
(0.43575 0.973549 -1.28345)
(0.0727858 0.119123 -0.280412)
(0.238434 -0.393848 -0.420867)
(-0.302368 -1.63065 -0.383315)
(0 0 0)
(0 0 0)
(0 0 0)
(0 0 0)
(0 0 0)
(1.27083 0.608243 -0.276281)
(0 0 0)
(0 0 0)
(0 0 0)
(0 0 0)
(0 0 0)
(0 0 0)
(0 0 0)
(0.56212 -0.508889 1.09224)
(0.81703 0.454339 0.527055)
(-2.22972 -0.354848 -0.84277)
(0 0 0)
(0 0 0)
(-0.058744 -1.61033 0.857076)
(0 0 0)
(-0.17953 0.163853 0.246827)
(0 0 0)
(1.13365 0.074229 0.0110141)
(0 0 0)
(0 0 0)
(1.00096 1.52551 -1.7746)
(-0.878573 -0.870154 -0.465637)
(0 0 0)
(0 0 0)
(0 0 0)
(0 0 0)
(0 0 0)
(0 0 0)
(0 0 0)
(0 0 0)
(-0.539586 -0.686226 0.561304)
(0 0 0)
(1.89684 -1.05468 0.153936)
(-0.551967 0.306813 0.250499)
(-0.466488 -0.634377 0.37962)
(0 0 0)
(-1.46574 -0.4245 -1.73426)
(-1.42884 1.80372 -0.434882)
(0 0 0)
(0 0 0)
(-0.845202 -3.47397 0.528736)
(0 0 0)
(0 0 0)
(0 0 0)
(0 0 0)
(0 0 0)
(0.351552 -0.229032 0.439596)
(0 0 0)
(0 0 0)
(0 0 0)
(0 0 0)
(0 0 0)
(0 0 0)
(0 0 0)
(0.37864 -1.64664 0.360906)
(0 0 0)
(0 0 0)
(0 0 0)
(0 0 0)
(0 0 0)
(0.314419 -0.275382 0.429312)
(-0.262016 -0.205718 -0.153053)
(0.686443 -1.43913 -0.437625)
(0 0 0)
(0 0 0)
(0.148232 2.16135 5.09125)
(0 0 0)
(0 0 0)
(0 0 0)
(0.0224238 -0.874955 0.898923)
(0 0 0)
(0 0 0)
(0 0 0)
(0 0 0)
(-0.0517573 -0.268926 -0.288057)
(-0.371152 -0.301613 0.370119)
(0 0 0)
(0 0 0)
(0 0 0)
(3.54631 0.0741676 -1.13121)
(0 0 0)
(0 0 0)
(0 0 0)
(0 0 0)
(0 0 0)
(0 0 0)
(0 0 0)
(0 0 0)
(0.59266 -1.03877 0.063472)
(0 0 0)
(0 0 0)
(0 0 0)
(0 0 0)
(-1.80652 -0.11906 0.569641)
(0 0 0)
(0 0 0)
(0 0 0)
(0 0 0)
(0 0 0)
(0 0 0)
(-0.119731 0.274765 0.0628793)
(0 0 0)
(0 0 0)
(0 0 0)
(0 0 0)
(1.14755 1.21983 -0.223097)
(1.26746 1.5144 0.540469)
(-0.0458019 -0.112387 0.328293)
(0 0 0)
(-0.198948 -0.151412 -0.16968)
(2.02969 -0.855337 0.254747)
(3.0024 0.481528 4.12922)
(0 0 0)
(0 0 0)
(-1.39023 -0.54201 1.04834)
(0 0 0)
(0 0 0)
(0 0 0)
(-1.37574 0.333622 -1.58799)
(0 0 0)
(0 0 0)
(1.69188 -2.41421 -1.41766)
(0 0 0)
(0 0 0)
(-0.0765516 -0.360869 -0.929855)
(0 0 0)
(0 0 0)
(0 0 0)
(0 0 0)
(0 0 0)
(0 0 0)
(0 0 0)
(0 0 0)
(0 0 0)
(0 0 0)
(0 0 0)
(0.0897256 0.312858 -0.16388)
(0 0 0)
(0 0 0)
(0 0 0)
(0 0 0)
(0 0 0)
(1.46748 -1.68386 0.0443863)
(1.65403 -2.53064 0.916367)
(0 0 0)
(0 0 0)
(0 0 0)
(0 0 0)
(1.01804 0.812388 1.36008)
(0 0 0)
(0 0 0)
(0.652108 0.0750072 2.31689)
(0 0 0)
(0.447036 -0.128076 0.660477)
(2.36514 1.17165 2.23205)
(0 0 0)
(0 0 0)
(0 0 0)
(0 0 0)
(0 0 0)
(-2.07337 2.32835 2.16616)
(0 0 0)
(0 0 0)
(0 0 0)
(0 0 0)
(0 0 0)
(0.38279 -0.201122 -0.880477)
(0 0 0)
(0 0 0)
(0.157236 -3.5093 -1.84812)
(0 0 0)
(0 0 0)
(-0.446887 0.371651 -0.415131)
(0 0 0)
(0 0 0)
(-1.66492 0.0415367 1.4011)
(0 0 0)
(0 0 0)
(-0.0850869 0.66671 -0.373988)
(-1.2502 -2.12943 -1.29994)
(0 0 0)
(0 0 0)
(0 0 0)
(0 0 0)
(0 0 0)
(0 0 0)
(0 0 0)
(0 0 0)
(0 0 0)
(0 0 0)
(2.20902 2.35696 2.45353)
(0.0813243 0.0014395 1.22411)
(0 0 0)
(0 0 0)
(0 0 0)
(0 0 0)
(1.88524 0.736274 0.934265)
(0 0 0)
(0 0 0)
(-1.1673 1.10018 -1.85571)
(0 0 0)
(0 0 0)
(0 0 0)
(0 0 0)
(0 0 0)
(0 0 0)
(0 0 0)
(0 0 0)
(0 0 0)
(-0.321989 0.227552 0.121137)
(0 0 0)
(0 0 0)
(0 0 0)
(0 0 0)
(0 0 0)
(-0.458411 -0.0445179 -0.96062)
(0 0 0)
(0 0 0)
(0 0 0)
(0 0 0)
(0 0 0)
(0 0 0)
(0 0 0)
(0 0 0)
(-2.1494 -1.95153 2.20496)
(0.772937 0.524752 0.221688)
(0 0 0)
(0 0 0)
(0 0 0)
(0.713421 0.632421 0.103836)
(0 0 0)
(0 0 0)
(0 0 0)
(0 0 0)
(0 0 0)
(-0.704873 0.257214 -0.305074)
(0 0 0)
(0 0 0)
(0 0 0)
(0 0 0)
(0 0 0)
(0 0 0)
(0 0 0)
(0 0 0)
(-0.465507 0.691824 0.816564)
(0 0 0)
(0 0 0)
(0 0 0)
(0 0 0)
(0 0 0)
(0 0 0)
(0 0 0)
(0 0 0)
(0 0 0)
(0 0 0)
(0 0 0)
(-0.714324 -0.394529 0.308672)
(0 0 0)
(-1.74674 1.71826 0.412747)
(0 0 0)
(0 0 0)
(-1.86121 -0.0876514 2.0765)
(0 0 0)
(0 0 0)
(0 0 0)
(0 0 0)
(0 0 0)
(0 0 0)
(0 0 0)
(0 0 0)
(0 0 0)
(0 0 0)
(0 0 0)
(0 0 0)
(0 0 0)
(0 0 0)
(-0.787927 1.2508 1.5482)
(-0.223595 -0.449008 -0.208114)
(0 0 0)
(0 0 0)
(0 0 0)
(0 0 0)
(0 0 0)
(0 0 0)
(0 0 0)
(0 0 0)
(0 0 0)
(0 0 0)
(0 0 0)
(0.837579 -0.319773 -0.515548)
(0 0 0)
(0 0 0)
(0 0 0)
(0 0 0)
(0 0 0)
(0 0 0)
(0 0 0)
(0 0 0)
(0 0 0)
(0 0 0)
(0 0 0)
(0 0 0)
(-0.0388186 0.49333 0.754031)
(0 0 0)
(0 0 0)
(0 0 0)
(0 0 0)
(0 0 0)
(0 0 0)
(0 0 0)
(0 0 0)
(-0.126673 -0.0994449 0.0631352)
(0 0 0)
(0 0 0)
(0 0 0)
(0 0 0)
(0 0 0)
(0 0 0)
(0 0 0)
(0 0 0)
(0 0 0)
(0 0 0)
(0 0 0)
(0 0 0)
(1.55247 -0.573628 0.111492)
(0 0 0)
(0 0 0)
(0 0 0)
(0 0 0)
(0 0 0)
(0 0 0)
(0 0 0)
(0 0 0)
(0 0 0)
(0 0 0)
(0 0 0)