/*--------------------------------*- C++ -*----------------------------------*\
| =========                 |                                                 |
| \\      /  F ield         | OpenFOAM: The Open Source CFD Toolbox           |
|  \\    /   O peration     | Version:  1.7.0                                 |
|   \\  /    A nd           | Web:      www.OpenFOAM.com                      |
|    \\/     M anipulation  |                                                 |
\*---------------------------------------------------------------------------*/
FoamFile
{
    version     2.0;
    format      ascii;
    class       scalarField;
    location    "0.33/lagrangian/defaultCloud";
    object      m;
}
// * * * * * * * * * * * * * * * * * * * * * * * * * * * * * * * * * * * * * //


29889
(
1.02737e-13
4.1574e-13
1.38731e-13
2.00845e-13
4.0266e-13
4.064e-13
3.79373e-13
1.54562e-13
4.11364e-13
4.14779e-13
7.86279e-14
4.32193e-13
4.17246e-13
3.75099e-13
3.81363e-13
3.91267e-13
4.10777e-13
4.20223e-13
4.11448e-13
4.19297e-13
4.16094e-13
4.19297e-13
3.84952e-13
4.34041e-13
3.84015e-13
2.18348e-13
3.76107e-13
3.88586e-13
4.24227e-13
4.01906e-13
3.26793e-13
4.36884e-13
1.35615e-13
4.091e-13
3.8758e-13
3.80957e-13
4.08391e-13
3.79648e-13
3.96403e-13
4.12741e-13
4.38566e-13
3.22617e-13
4.14217e-13
3.85016e-13
3.92382e-13
4.05479e-13
3.4899e-13
4.38003e-13
3.68553e-13
4.36971e-13
3.48329e-13
4.09198e-13
3.59073e-13
3.89424e-13
4.1713e-13
4.30603e-13
4.27574e-13
2.51926e-13
4.25101e-13
4.11222e-13
4.20958e-13
4.34237e-13
4.26306e-13
3.01178e-13
4.43109e-13
4.2466e-13
4.41195e-13
4.06348e-13
4.05111e-13
3.412e-13
3.94494e-13
4.27463e-13
3.83153e-13
3.4524e-13
3.49027e-13
4.29786e-13
4.31797e-13
4.0245e-13
4.33462e-13
2.31256e-13
4.31364e-13
4.32772e-13
4.4404e-13
4.41624e-13
4.04826e-13
4.42034e-13
3.77686e-13
4.35087e-13
4.31142e-13
4.30344e-13
4.28077e-13
4.41226e-13
4.31795e-13
4.07088e-13
3.06005e-13
2.56002e-13
4.34096e-13
3.9109e-13
3.82083e-13
4.12442e-13
4.40472e-13
4.18547e-13
4.12046e-13
4.30284e-13
3.89906e-13
3.83374e-13
4.33168e-13
4.30267e-13
4.26273e-13
4.48588e-13
3.78697e-13
4.16536e-13
4.10366e-13
3.32173e-13
3.71504e-13
4.18536e-13
4.10001e-13
4.34197e-13
4.35091e-13
4.27558e-13
4.34522e-13
4.14448e-13
4.36444e-13
4.12271e-13
2.85144e-13
2.90199e-13
4.19539e-13
4.30448e-13
4.29903e-13
4.39167e-13
4.40703e-13
4.40449e-13
4.39612e-13
4.35356e-13
4.26774e-13
4.30533e-13
3.31721e-13
2.92728e-13
4.04417e-13
3.46166e-13
3.75539e-13
3.86369e-13
3.64454e-13
4.17762e-13
4.07048e-13
4.3286e-13
4.30345e-13
3.04616e-13
4.14677e-13
4.07623e-13
1.75485e-13
4.26397e-13
4.35555e-13
4.28491e-13
3.10431e-13
4.47047e-13
4.22261e-13
4.47476e-13
3.9146e-13
4.07837e-13
4.01532e-13
4.13021e-13
4.31855e-13
4.47007e-13
4.45153e-13
3.8889e-13
3.93811e-13
4.33522e-13
4.39918e-13
4.39129e-13
4.46266e-13
4.16495e-13
4.26586e-13
3.95682e-13
3.97595e-13
4.44395e-13
4.15808e-13
3.92459e-13
4.45943e-13
4.13612e-13
3.35267e-13
4.22216e-13
4.3209e-13
4.39626e-13
4.30559e-13
4.33142e-13
1.80851e-13
4.482e-13
4.3654e-13
4.49698e-13
4.20649e-13
4.40788e-13
3.58767e-13
4.46636e-13
4.23598e-13
3.92301e-13
3.26132e-13
3.74287e-13
4.41335e-13
3.2956e-13
4.14799e-13
4.25045e-13
4.32703e-13
4.06112e-13
4.46392e-13
4.12299e-13
4.14433e-13
4.42104e-13
4.46048e-13
4.0595e-13
4.44486e-13
4.36365e-13
4.25235e-13
4.31112e-13
4.41782e-13
4.21359e-13
4.25834e-13
4.37849e-13
4.1492e-13
4.36564e-13
4.527e-13
4.40537e-13
4.27732e-13
4.47203e-13
4.36652e-13
3.91134e-13
4.459e-13
3.04061e-13
4.43913e-13
4.3344e-13
4.46258e-13
4.37444e-13
4.38086e-13
4.0772e-13
4.47361e-13
4.45462e-13
4.16778e-13
4.48266e-13
4.41679e-13
4.30515e-13
4.43402e-13
4.40488e-13
4.35638e-13
4.46087e-13
3.8745e-13
4.3343e-13
3.46326e-13
2.89643e-13
4.36666e-13
3.85154e-13
4.31531e-13
4.22798e-13
4.46457e-13
4.225e-13
4.37347e-13
4.49779e-13
4.41871e-13
4.29972e-13
4.01583e-13
4.45588e-13
4.39584e-13
4.51396e-13
4.16054e-13
1.04666e-13
4.16207e-13
4.2984e-13
4.25135e-13
4.09014e-13
4.53561e-13
4.47878e-13
4.47512e-13
4.49203e-13
4.15073e-13
4.30018e-13
4.43295e-13
4.52831e-13
4.43518e-13
3.93185e-13
4.47278e-13
4.40275e-13
4.39412e-13
4.3787e-13
4.3173e-13
4.23596e-13
4.26244e-13
4.26242e-13
3.77104e-13
4.30019e-13
4.47832e-13
4.48251e-13
4.44982e-13
4.48358e-13
4.44296e-13
3.3336e-13
4.5153e-13
4.48693e-13
4.28851e-13
4.33848e-13
4.25687e-13
4.51614e-13
4.36659e-13
4.17923e-13
4.27628e-13
4.46464e-13
4.51523e-13
4.25832e-13
4.49758e-13
3.72269e-13
4.46664e-13
4.4499e-13
4.19002e-13
4.11563e-13
4.50728e-13
4.47372e-13
4.32258e-13
4.32396e-13
3.7665e-13
4.43906e-13
2.61584e-13
3.42711e-13
4.39668e-13
3.47482e-13
4.1378e-13
4.37981e-13
4.39808e-13
4.47208e-13
3.28612e-13
4.24218e-13
3.78102e-13
4.53262e-13
2.06557e-13
4.32442e-13
4.39188e-13
4.41258e-13
4.44228e-13
4.47791e-13
4.3157e-13
4.24082e-13
4.03537e-13
4.48336e-13
4.35262e-13
4.46416e-13
4.44042e-13
4.149e-13
4.35711e-13
4.27107e-13
4.39854e-13
4.12791e-13
4.491e-13
4.27895e-13
4.54077e-13
4.04673e-13
4.55027e-13
4.17449e-13
4.45893e-13
4.37394e-13
4.43377e-13
4.45532e-13
4.46751e-13
4.43829e-13
4.43752e-13
4.40457e-13
4.41727e-13
4.51281e-13
4.47059e-13
4.12698e-13
4.40712e-13
4.48841e-13
4.23533e-13
4.14029e-13
3.96595e-13
3.42757e-13
4.38284e-13
4.41317e-13
4.46295e-13
4.36916e-13
4.35245e-13
4.52925e-13
3.68129e-13
4.40027e-13
4.46511e-13
4.4849e-13
4.25583e-13
4.45806e-13
4.35641e-13
4.17327e-13
4.09495e-13
3.44872e-13
4.30881e-13
4.48994e-13
4.42451e-13
4.54185e-13
4.45393e-13
4.4833e-13
4.49258e-13
4.16169e-13
4.10577e-13
4.46175e-13
4.48604e-13
3.97539e-13
3.78298e-13
4.33884e-13
4.48848e-13
4.27223e-13
4.15349e-13
4.47473e-13
1.54059e-13
4.53762e-13
4.17259e-13
4.37804e-13
4.51756e-13
4.34367e-13
4.42627e-13
4.4496e-13
4.50364e-13
4.5298e-13
4.44835e-13
1.70494e-13
4.49776e-13
4.44133e-13
4.38292e-13
4.33846e-13
4.48463e-13
4.49848e-13
4.51648e-13
4.50835e-13
4.4941e-13
4.1471e-13
4.47947e-13
4.55017e-13
4.34086e-13
4.42937e-13
4.26859e-13
4.43269e-13
4.5441e-13
4.42211e-13
4.48353e-13
4.47819e-13
4.50729e-13
4.44587e-13
4.52469e-13
4.48783e-13
4.46937e-13
4.47296e-13
4.49978e-13
4.34196e-13
4.46671e-13
4.02031e-13
4.51526e-13
4.54777e-13
4.33534e-13
4.22672e-13
2.76611e-13
4.47708e-13
4.50699e-13
4.15766e-13
4.32169e-13
4.42729e-13
4.41872e-13
4.57878e-13
4.42969e-13
4.50907e-13
4.51777e-13
4.4869e-13
4.55329e-13
4.49778e-13
4.50217e-13
4.44936e-13
4.53045e-13
4.50573e-13
4.47438e-13
4.49383e-13
4.41628e-13
4.55543e-13
4.45663e-13
4.54575e-13
4.42391e-13
4.47169e-13
4.52692e-13
4.53044e-13
4.40269e-13
4.49119e-13
4.5466e-13
4.4602e-13
4.42822e-13
4.51968e-13
4.32033e-13
4.42105e-13
4.46079e-13
4.49873e-13
4.4957e-13
4.50625e-13
4.51292e-13
4.46714e-13
4.50456e-13
4.49702e-13
4.47214e-13
4.468e-13
4.50644e-13
4.21967e-13
4.48548e-13
4.51942e-13
4.46249e-13
4.38082e-13
4.24332e-13
4.36771e-13
4.43363e-13
4.51714e-13
4.40345e-13
4.49977e-13
4.53402e-13
4.52387e-13
4.43761e-13
4.01242e-13
4.03293e-13
4.52175e-13
4.54628e-13
4.19237e-13
4.51983e-13
4.4435e-13
4.5217e-13
4.39755e-13
4.53366e-13
4.49553e-13
4.48211e-13
4.16295e-13
4.54234e-13
4.45643e-13
4.53845e-13
4.39514e-13
4.44897e-13
4.51947e-13
4.48886e-13
3.49849e-13
4.3544e-13
4.25894e-13
4.45998e-13
4.47349e-13
4.53176e-13
4.50582e-13
4.3915e-13
4.48693e-13
4.48442e-13
4.49351e-13
4.51278e-13
4.31187e-13
4.48009e-13
3.72479e-13
4.54855e-13
4.35788e-13
4.44483e-13
4.44902e-13
4.54727e-13
4.1428e-13
4.36743e-13
4.5566e-13
4.45314e-13
4.53989e-13
4.43407e-13
4.44341e-13
4.5561e-13
4.55001e-13
4.47571e-13
4.49376e-13
4.50865e-13
4.46593e-13
4.49279e-13
4.08229e-13
4.24909e-13
4.23778e-13
3.22857e-13
4.4519e-13
4.41731e-13
4.43415e-13
4.54407e-13
4.4539e-13
4.473e-13
4.5406e-13
4.52574e-13
4.47034e-13
4.56805e-13
4.48837e-13
4.51034e-13
4.44342e-13
4.49763e-13
4.47101e-13
4.50846e-13
4.51123e-13
4.50966e-13
4.49425e-13
4.56234e-13
4.54938e-13
4.50303e-13
4.47475e-13
4.44117e-13
4.54111e-13
4.51727e-13
4.52428e-13
4.4449e-13
4.41695e-13
4.39781e-13
4.48723e-13
4.54797e-13
4.4341e-13
4.56306e-13
4.44635e-13
4.55308e-13
4.47594e-13
4.36586e-13
4.34035e-13
4.35816e-13
4.26058e-13
4.29071e-13
4.48987e-13
4.51746e-13
4.53056e-13
4.57474e-13
4.55991e-13
4.56132e-13
4.46736e-13
4.51719e-13
3.93601e-13
4.48778e-13
4.5127e-13
4.53045e-13
4.53367e-13
4.52874e-13
4.53122e-13
4.44212e-13
4.47335e-13
4.53343e-13
4.5602e-13
4.57145e-13
3.42232e-13
4.30933e-13
4.53482e-13
4.55367e-13
4.51518e-13
4.57902e-13
4.54155e-13
4.4541e-13
4.51913e-13
3.89468e-13
4.37575e-13
4.40751e-13
4.44853e-13
4.41345e-13
4.55199e-13
4.34822e-13
4.50289e-13
4.49956e-13
4.44551e-13
4.37502e-13
4.18494e-13
4.45842e-13
4.45763e-13
4.50342e-13
4.5321e-13
4.55414e-13
4.56933e-13
4.47944e-13
4.56084e-13
4.48152e-13
4.48896e-13
4.5297e-13
4.4912e-13
4.49326e-13
4.49346e-13
4.46812e-13
4.4578e-13
4.03507e-13
4.53705e-13
4.18751e-13
4.46768e-13
4.54781e-13
4.56125e-13
4.3349e-13
4.49759e-13
4.47366e-13
4.54152e-13
4.32495e-13
4.44387e-13
4.50512e-13
4.56318e-13
4.58067e-13
4.54888e-13
4.56357e-13
4.51877e-13
4.56906e-13
4.34781e-13
4.50168e-13
4.50277e-13
4.51022e-13
4.52994e-13
4.48341e-13
4.36064e-13
4.45461e-13
4.42929e-13
4.45059e-13
4.44703e-13
4.47435e-13
3.18248e-13
4.54667e-13
4.52808e-13
4.45642e-13
4.55384e-13
4.19998e-13
4.51884e-13
4.5845e-13
4.40645e-13
4.52382e-13
4.53213e-13
4.46992e-13
4.53993e-13
4.39861e-13
4.47696e-13
4.52956e-13
4.40943e-13
4.30285e-13
4.39502e-13
4.52051e-13
4.53506e-13
4.57515e-13
4.54464e-13
4.56186e-13
4.38444e-13
4.48438e-13
4.44238e-13
4.49613e-13
4.55938e-13
4.31071e-13
4.53516e-13
4.38755e-13
4.5731e-13
4.50109e-13
4.52152e-13
4.50441e-13
4.57366e-13
4.50791e-13
4.45458e-13
4.55986e-13
3.72652e-13
1.05144e-13
4.32957e-13
4.49898e-13
4.5621e-13
4.48195e-13
4.46259e-13
4.50136e-13
4.52221e-13
4.5208e-13
4.57814e-13
4.5548e-13
4.54162e-13
4.25982e-13
4.51301e-13
4.418e-13
4.52134e-13
4.47506e-13
4.52955e-13
4.52847e-13
4.55954e-13
4.46811e-13
4.4957e-13
4.56186e-13
4.56237e-13
1.67816e-14
4.52452e-13
4.55098e-13
4.5716e-13
4.54402e-13
3.65189e-13
4.43965e-13
4.59363e-13
4.54025e-13
4.49169e-13
3.671e-13
4.49679e-13
4.56446e-13
4.51164e-13
4.49622e-13
4.47846e-13
4.55073e-13
4.51784e-13
4.543e-13
4.5671e-13
4.51877e-13
4.47471e-13
4.26062e-13
4.57884e-13
4.47107e-13
4.54831e-13
4.50948e-13
4.51476e-13
4.53883e-13
4.4592e-13
4.45192e-13
4.56667e-13
4.51619e-13
4.47858e-13
4.41633e-13
4.50135e-13
4.51293e-13
4.5194e-13
4.54739e-13
4.42636e-13
4.22723e-13
4.31928e-13
4.55219e-13
4.56657e-13
4.55363e-13
4.5515e-13
4.38321e-13
4.51712e-13
4.59717e-13
4.56922e-13
4.42555e-13
4.52941e-13
4.55605e-13
4.48961e-13
4.54043e-13
4.50586e-13
4.53194e-13
4.55004e-13
4.53872e-13
3.97396e-13
4.55579e-13
4.5348e-13
4.45951e-13
4.43652e-13
4.55419e-13
4.4967e-13
4.50648e-13
4.51886e-13
4.53407e-13
4.59229e-13
4.58774e-13
4.57074e-13
4.58705e-13
4.54414e-13
4.50696e-13
4.30343e-13
4.49103e-13
4.53281e-13
4.57099e-13
4.23466e-13
4.50394e-13
4.55021e-13
4.54396e-13
4.4692e-13
4.46644e-13
4.54732e-13
4.44913e-13
4.5666e-13
4.49994e-13
4.58252e-13
4.55327e-13
4.51841e-13
4.48959e-13
4.55153e-13
4.42589e-13
4.5653e-13
4.55916e-13
4.5725e-13
4.54621e-13
4.51521e-13
4.56822e-13
4.55008e-13
4.55803e-13
4.53224e-13
4.4358e-13
4.31834e-13
4.51522e-13
4.51782e-13
4.5749e-13
4.29123e-13
4.52402e-13
4.54065e-13
4.49569e-13
4.26595e-13
4.56932e-13
4.5579e-13
4.1187e-13
4.54291e-13
4.4105e-13
4.33372e-13
4.56823e-13
4.52561e-13
4.57012e-13
4.49359e-13
4.5406e-13
4.54576e-13
4.14968e-13
4.40959e-13
4.53774e-13
4.32977e-13
4.55692e-13
4.50532e-13
4.56593e-13
4.53517e-13
4.54125e-13
4.56044e-13
4.58143e-13
4.53841e-13
4.52095e-13
4.51751e-13
4.52744e-13
4.46305e-13
4.49807e-13
4.54721e-13
4.57172e-13
4.56882e-13
4.57348e-13
4.54636e-13
4.55282e-13
4.33181e-13
4.50943e-13
4.47594e-13
4.51513e-13
4.46066e-13
4.49461e-13
4.59043e-13
4.18826e-13
4.56286e-13
4.57998e-13
4.35063e-13
4.54589e-13
4.57793e-13
4.51223e-13
4.54788e-13
4.49563e-13
4.49684e-13
4.30104e-13
4.56318e-13
4.55699e-13
4.38492e-13
4.57737e-13
4.49325e-13
4.15889e-13
4.44691e-13
4.58005e-13
4.52889e-13
4.55224e-13
4.47541e-13
4.51914e-13
4.54223e-13
4.5616e-13
4.51555e-13
4.5855e-13
4.51672e-13
4.45692e-13
4.07187e-13
4.37205e-13
4.57446e-13
4.53967e-13
4.29503e-13
4.53179e-13
4.56941e-13
4.35046e-13
4.54022e-13
4.53236e-13
4.47918e-13
4.16195e-13
3.72845e-13
3.89954e-13
4.51463e-13
4.57924e-13
4.55199e-13
4.56616e-13
4.58159e-13
4.52145e-13
4.49306e-13
4.06708e-13
4.57232e-13
4.59146e-13
4.53314e-13
4.51486e-13
4.58351e-13
4.52453e-13
4.46668e-13
4.5837e-13
4.58804e-13
4.54655e-13
4.59321e-13
4.41281e-13
4.58728e-13
3.1007e-13
4.59189e-13
4.58282e-13
4.56618e-13
4.55225e-13
4.22026e-13
4.55956e-13
4.28839e-13
4.57803e-13
4.54108e-13
4.59371e-13
4.40705e-13
4.52407e-13
4.53524e-13
4.4985e-13
4.58289e-13
4.50711e-13
4.54209e-13
4.56924e-13
4.53026e-13
4.56988e-13
4.50679e-13
4.58788e-13
4.55835e-13
4.54909e-13
4.58709e-13
4.58709e-13
4.58714e-13
4.54884e-13
4.57509e-13
4.49262e-13
4.46716e-13
4.57617e-13
4.58131e-13
4.47043e-13
4.51287e-13
4.59066e-13
4.59085e-13
4.54241e-13
4.57632e-13
4.53648e-13
4.48953e-13
4.58022e-13
4.57973e-13
4.54848e-13
4.59409e-13
4.53878e-13
4.43725e-13
4.57849e-13
4.4851e-13
4.57842e-13
4.53934e-13
4.53103e-13
4.35827e-13
4.51416e-13
4.46993e-13
3.80288e-13
4.60405e-13
4.55425e-13
4.48796e-13
4.54456e-13
4.58281e-13
4.51993e-13
4.55472e-13
4.52132e-13
4.58698e-13
4.49723e-13
4.57121e-13
4.56885e-13
4.49637e-13
4.56109e-13
4.55693e-13
4.43313e-13
4.56912e-13
1.5181e-13
4.56873e-13
4.59418e-13
4.58671e-13
4.58118e-13
4.53708e-13
4.52161e-13
4.61207e-13
4.59055e-13
4.51293e-13
4.43713e-13
4.58374e-13
4.59938e-13
4.55474e-13
4.57309e-13
4.57784e-13
4.59049e-13
4.41016e-13
4.57183e-13
4.57224e-13
4.59361e-13
4.58738e-13
4.54443e-13
4.47765e-13
4.57995e-13
4.42319e-13
4.54385e-13
4.36042e-13
4.55333e-13
4.50106e-13
4.5742e-13
4.59565e-13
4.6058e-13
4.59842e-13
4.58331e-13
4.56764e-13
4.61365e-13
4.55676e-13
4.57779e-13
4.45847e-13
4.58681e-13
4.51573e-13
4.59884e-13
4.5895e-13
4.55276e-13
4.58476e-13
4.55087e-13
4.58871e-13
4.57322e-13
4.41167e-13
4.59377e-13
4.57679e-13
4.58502e-13
4.59126e-13
4.58896e-13
4.41131e-13
4.59224e-13
4.56444e-13
4.58241e-13
4.57936e-13
4.56858e-13
4.5693e-13
4.57652e-13
4.50277e-13
4.5928e-13
4.58353e-13
4.41974e-13
4.59743e-13
4.52906e-13
4.13547e-13
4.55312e-13
4.59592e-13
4.59035e-13
4.61199e-13
4.56578e-13
4.54983e-13
4.56335e-13
4.4896e-13
4.60894e-13
4.59666e-13
4.45866e-13
4.57587e-13
4.5871e-13
4.5906e-13
4.58775e-13
4.36316e-13
4.59477e-13
4.59605e-13
4.58521e-13
4.60402e-13
4.5538e-13
4.5492e-13
4.60494e-13
4.58709e-13
4.59215e-13
4.60211e-13
4.55012e-13
4.5119e-13
4.59192e-13
4.44961e-13
4.59202e-13
4.34491e-13
4.49598e-13
4.59193e-13
4.58715e-13
4.38653e-13
4.58587e-13
4.60564e-13
4.59883e-13
4.57816e-13
4.57316e-13
4.58681e-13
4.60412e-13
4.36596e-13
4.55158e-13
4.59199e-13
4.55543e-13
4.5954e-13
4.5779e-13
4.58314e-13
4.57742e-13
4.53345e-13
4.60893e-13
4.59318e-13
4.60033e-13
4.59242e-13
4.57259e-13
4.58641e-13
4.57426e-13
4.59932e-13
4.60244e-13
4.60937e-13
4.53e-13
4.61082e-13
4.58395e-13
4.60613e-13
4.60656e-13
4.59746e-13
4.60902e-13
4.59351e-13
4.57669e-13
4.59673e-13
4.5258e-13
4.5418e-13
4.60284e-13
4.59064e-13
4.59754e-13
4.541e-13
4.59627e-13
4.60596e-13
4.59819e-13
4.55772e-13
4.59904e-13
4.60934e-13
4.60198e-13
4.59217e-13
4.40654e-13
4.6026e-13
4.58892e-13
4.60697e-13
4.58513e-13
4.56678e-13
4.59753e-13
4.60722e-13
4.61101e-13
4.49815e-13
4.60583e-13
4.59044e-13
4.55544e-13
4.6015e-13
4.60269e-13
4.59146e-13
4.58592e-13
4.47858e-13
4.61684e-13
4.59836e-13
4.60917e-13
4.57416e-13
4.55471e-13
4.61648e-13
4.55734e-13
4.61312e-13
4.52491e-13
4.52317e-13
4.59559e-13
4.57623e-13
4.58649e-13
4.59183e-13
4.60431e-13
4.58827e-13
4.60594e-13
4.60648e-13
4.59801e-13
4.60219e-13
4.61504e-13
4.60197e-13
3.99095e-13
4.60553e-13
4.57899e-13
4.56708e-13
4.62066e-13
4.61675e-13
4.60564e-13
4.58142e-13
4.58904e-13
4.59149e-13
4.60015e-13
4.59706e-13
4.612e-13
4.60666e-13
4.56237e-13
4.61433e-13
4.54962e-13
4.59027e-13
4.04409e-13
4.48516e-13
4.61556e-13
4.58946e-13
4.61271e-13
4.62114e-13
4.60203e-13
4.58731e-13
4.6143e-13
4.59337e-13
4.61968e-13
4.6056e-13
4.6081e-13
4.57187e-13
4.5308e-13
4.62517e-13
4.60084e-13
4.59996e-13
4.62112e-13
4.55358e-13
4.62264e-13
4.57386e-13
4.6141e-13
4.60822e-13
4.60488e-13
4.6098e-13
4.61291e-13
4.59615e-13
4.61266e-13
4.60953e-13
4.61638e-13
4.60618e-13
4.62208e-13
4.61655e-13
4.6216e-13
4.5852e-13
4.58753e-13
4.6038e-13
4.59705e-13
4.62457e-13
4.61037e-13
4.61699e-13
4.62007e-13
4.61914e-13
4.62122e-13
4.62242e-13
4.6219e-13
4.62198e-13
4.61137e-13
4.6179e-13
4.61284e-13
4.55013e-13
4.62492e-13
4.62354e-13
4.61984e-13
4.61975e-13
4.61965e-13
4.61877e-13
4.57587e-13
4.6172e-13
4.62086e-13
4.59886e-13
4.59781e-13
4.62148e-13
4.6106e-13
4.61368e-13
4.60054e-13
4.62171e-13
4.62043e-13
4.61363e-13
4.60781e-13
4.61901e-13
4.62201e-13
4.6218e-13
4.5252e-13
4.62181e-13
4.62402e-13
4.57431e-13
4.59335e-13
4.6215e-13
4.61478e-13
4.61134e-13
4.62413e-13
4.5513e-13
4.61948e-13
4.61291e-13
4.5006e-13
4.6272e-13
4.62281e-13
4.61191e-13
4.62096e-13
4.62388e-13
4.57544e-13
4.61553e-13
4.62218e-13
4.62787e-13
4.62528e-13
4.61113e-13
4.62264e-13
4.6252e-13
4.60602e-13
4.56541e-13
4.62428e-13
4.56719e-13
4.612e-13
4.62753e-13
4.61409e-13
4.62654e-13
4.6251e-13
4.62081e-13
4.62455e-13
4.59333e-13
4.61765e-13
4.61912e-13
4.62536e-13
4.62561e-13
4.62674e-13
4.62679e-13
4.61687e-13
4.62871e-13
4.62825e-13
4.62583e-13
4.63002e-13
4.6285e-13
4.62494e-13
4.62963e-13
4.63005e-13
4.62958e-13
4.6303e-13
4.62971e-13
1.11028e-13
1.28239e-14
2.0878e-14
7.07421e-16
6.30721e-14
3.86873e-14
7.73523e-15
2.2276e-13
1.07518e-14
1.99755e-14
2.21849e-13
3.01753e-14
7.16402e-14
3.6341e-14
1.08706e-13
2.01287e-13
1.80146e-13
1.2196e-13
6.96632e-14
1.42467e-13
1.07972e-13
3.16791e-15
1.17294e-13
4.57987e-14
1.95543e-13
1.69229e-13
6.02374e-14
1.38549e-13
9.16271e-14
2.17803e-13
1.77933e-13
1.62019e-14
3.25597e-14
8.60544e-14
4.01979e-14
3.33416e-13
1.41479e-14
3.08118e-13
1.93423e-15
4.3837e-14
1.70283e-13
2.349e-13
2.57183e-13
4.55621e-14
1.66859e-13
1.72331e-13
1.16349e-13
1.15637e-13
8.10356e-14
4.03616e-15
1.17528e-13
2.19023e-13
2.02457e-14
2.27277e-13
2.75916e-16
2.22516e-13
2.53334e-13
2.3025e-13
3.19431e-13
2.17155e-13
5.87566e-15
1.73605e-14
1.38079e-13
1.32671e-13
9.14945e-15
2.78558e-14
1.90383e-13
1.9673e-13
1.19041e-13
3.08091e-13
3.36084e-14
2.21628e-13
1.60549e-13
2.85741e-13
1.45019e-13
5.26245e-14
6.26978e-14
3.19093e-14
1.2073e-13
3.22276e-13
1.94791e-13
9.09791e-14
8.99638e-14
1.7322e-13
2.4195e-13
9.66828e-14
4.90582e-14
9.36785e-14
4.39814e-14
1.64629e-13
1.03265e-13
9.42e-16
2.58082e-13
2.51044e-13
1.60797e-13
2.16693e-13
4.85529e-14
1.21664e-14
2.78901e-13
2.29288e-13
4.0744e-14
3.19846e-13
2.27688e-13
2.93013e-13
1.47969e-13
3.52146e-14
2.06267e-13
9.45589e-14
1.22029e-13
2.66712e-13
4.6677e-14
4.13978e-14
3.10948e-14
3.05672e-13
2.19017e-13
8.64472e-14
6.31621e-14
4.73974e-14
1.08925e-13
3.92133e-14
1.26315e-13
3.05943e-13
7.42867e-14
3.27848e-13
6.24702e-14
9.68664e-14
2.30608e-13
2.91322e-13
7.34735e-14
2.33276e-13
3.56619e-14
2.65287e-13
4.12414e-14
1.35108e-13
8.79827e-14
1.6604e-14
2.11697e-13
2.02913e-13
2.5361e-13
1.98183e-14
2.86646e-13
1.06393e-13
2.63491e-13
5.97387e-14
1.21783e-13
1.36717e-13
1.08027e-13
2.53641e-13
1.51875e-13
2.22176e-13
9.46524e-15
4.45495e-14
3.13449e-13
2.62968e-13
1.30916e-13
3.21246e-13
1.89084e-13
2.4971e-13
2.51387e-15
3.36651e-13
1.04418e-13
1.95259e-13
1.55957e-13
3.06127e-13
2.29806e-13
6.63105e-14
7.27284e-14
6.22123e-14
2.83405e-13
5.59403e-14
3.191e-13
2.88653e-13
2.62732e-13
2.59028e-13
3.43753e-13
2.67299e-13
3.02224e-13
1.98887e-13
1.08214e-13
3.24666e-13
1.80803e-13
3.41821e-13
3.0287e-13
1.65567e-13
3.12639e-13
3.90996e-14
2.62941e-13
1.87005e-13
2.59309e-13
3.24588e-13
3.51327e-14
3.82065e-13
1.5128e-13
2.16021e-13
2.92896e-14
1.53492e-13
2.17697e-13
2.06234e-13
1.78913e-13
3.43227e-13
2.68338e-13
1.7628e-13
1.35959e-13
1.93903e-13
3.15847e-13
1.37589e-13
1.53753e-13
1.34482e-13
2.54629e-13
2.20673e-13
2.27649e-13
3.27507e-13
2.77246e-13
2.62943e-13
1.74132e-13
6.44267e-14
2.07056e-13
3.29429e-13
1.92183e-13
6.6426e-14
2.13945e-13
1.62601e-13
1.2496e-13
2.68588e-13
2.19051e-13
3.23608e-13
1.82839e-13
3.03345e-13
2.39672e-14
2.60971e-13
1.61785e-13
2.67285e-13
2.29277e-13
2.44414e-13
9.4261e-14
1.84013e-13
1.0349e-13
2.46784e-13
3.64909e-13
2.57148e-13
2.37666e-13
3.43147e-13
2.27904e-13
3.26003e-13
3.10949e-13
3.35669e-13
3.72663e-13
2.86056e-13
2.96092e-13
3.54955e-13
1.82834e-13
2.53722e-13
3.29591e-13
2.7362e-13
2.50704e-13
1.05443e-13
1.45381e-13
1.01702e-14
6.99999e-14
1.2494e-13
2.42278e-13
2.58232e-13
3.18674e-13
3.29341e-13
2.79321e-13
1.40235e-13
3.31788e-14
2.10781e-13
1.71641e-13
1.52371e-13
1.15932e-14
1.01972e-13
2.66081e-14
2.82966e-13
1.76729e-13
8.17917e-14
2.16643e-13
3.19871e-13
2.27568e-13
1.87982e-13
2.44725e-13
1.74781e-13
3.18758e-13
8.44479e-14
6.75096e-14
5.06636e-14
1.97504e-13
2.62009e-13
1.60459e-13
3.47897e-13
5.81013e-14
1.46611e-13
2.10207e-13
2.70315e-14
2.44045e-13
3.7188e-14
2.34687e-13
1.12782e-13
1.35335e-13
3.64571e-13
3.22776e-13
1.657e-13
2.86545e-13
3.01013e-13
1.0598e-13
3.5176e-13
1.96086e-13
2.8139e-13
3.23626e-13
1.39758e-14
2.27849e-13
3.37137e-13
1.96973e-13
2.56287e-13
2.63271e-13
2.99962e-13
3.363e-13
3.0058e-14
9.4147e-14
1.54023e-13
2.72336e-13
5.07093e-14
1.34847e-13
2.59138e-13
3.72569e-13
3.45754e-13
1.54394e-13
2.37645e-13
6.75645e-14
2.09072e-13
3.57208e-13
2.32901e-13
2.19341e-13
3.3583e-13
1.29035e-14
1.09211e-13
1.12552e-13
3.01911e-13
3.42286e-13
2.17234e-13
9.04246e-14
1.26644e-13
2.22737e-13
2.36348e-13
1.60872e-13
6.76069e-14
2.77833e-13
1.11054e-13
1.27718e-13
2.55551e-13
2.23996e-13
6.48472e-14
2.65035e-13
2.96616e-13
2.84888e-13
2.71078e-14
1.12333e-13
1.12683e-13
1.42235e-13
3.23584e-13
2.72579e-13
2.08187e-13
2.51044e-13
2.48224e-13
1.83264e-13
3.91648e-13
3.27248e-13
3.04661e-13
1.41892e-13
6.73502e-14
2.25378e-13
8.26408e-14
1.74286e-13
2.86165e-13
1.46981e-13
1.96979e-13
2.06346e-13
2.61072e-13
2.09213e-13
3.46526e-13
2.0389e-13
2.77752e-13
3.14073e-13
2.92078e-13
7.24252e-14
3.87232e-13
3.32735e-13
6.78105e-14
1.99126e-13
1.81488e-13
9.42746e-15
8.45153e-14
3.44361e-13
3.61893e-14
2.17806e-13
2.81166e-13
1.25897e-13
8.09646e-14
1.61568e-13
1.86927e-13
1.35212e-13
2.48946e-13
1.96871e-13
2.71011e-13
1.11503e-13
2.42163e-13
2.41573e-13
8.65759e-14
3.5589e-13
2.26061e-13
3.35928e-13
3.27058e-13
3.1154e-13
2.74305e-13
1.84001e-13
3.00015e-13
3.6691e-13
1.59685e-13
4.54795e-14
6.23065e-14
1.8435e-13
7.93399e-15
3.6913e-13
2.76406e-13
2.55833e-13
6.89599e-14
3.62392e-13
4.62241e-14
3.36807e-13
1.9941e-13
5.48166e-14
3.5154e-13
1.18478e-13
3.36353e-13
1.47506e-13
1.52178e-13
3.66922e-13
4.05954e-14
2.74385e-13
3.38185e-13
3.50448e-13
2.98471e-13
3.04044e-13
1.82764e-13
2.62954e-13
3.05337e-14
3.0115e-13
1.33683e-14
1.67887e-13
2.31779e-13
2.34178e-14
1.19291e-13
2.21565e-13
2.07207e-13
2.9537e-13
2.44074e-13
3.12731e-13
3.76017e-13
1.32866e-14
3.78767e-13
3.29886e-13
2.44277e-13
2.86498e-13
1.73023e-13
2.6056e-13
3.37882e-13
1.51264e-13
1.96266e-13
3.87753e-14
2.24275e-13
3.69036e-13
3.07573e-13
2.27259e-13
2.42965e-13
1.37309e-13
2.13927e-13
1.60976e-13
4.49951e-14
2.5816e-13
2.24159e-13
2.64169e-13
3.17447e-13
3.24596e-13
2.78858e-13
1.22348e-13
1.34519e-13
2.53322e-13
2.5368e-13
3.14339e-13
3.31712e-13
3.53607e-13
4.09747e-14
2.15931e-15
2.79563e-13
1.59338e-13
2.68687e-14
1.7262e-13
2.72262e-13
3.36484e-13
2.89751e-14
4.61797e-14
3.35514e-13
2.78775e-13
3.7682e-14
2.98399e-13
8.2459e-14
1.82796e-13
2.85546e-13
2.1658e-13
7.24964e-14
2.07696e-13
2.79383e-13
3.96301e-14
1.8853e-13
3.8339e-13
1.24998e-14
2.99029e-13
2.61671e-13
1.88803e-13
1.31166e-13
3.19032e-13
7.80335e-14
7.24376e-14
3.44836e-13
3.53453e-13
3.18503e-13
3.3326e-13
1.13529e-13
3.47221e-13
3.58786e-13
1.83069e-13
2.89194e-13
1.89082e-13
3.41706e-13
3.7271e-13
3.5465e-13
2.21635e-13
2.53377e-13
2.15171e-13
1.66834e-13
3.601e-14
3.37299e-13
3.59649e-13
3.59624e-13
3.38255e-13
3.69932e-13
3.1336e-13
2.16095e-13
3.10689e-13
2.25196e-13
3.37625e-13
2.45611e-13
2.33042e-13
3.22914e-13
2.39521e-13
3.12852e-13
2.77197e-13
2.71437e-13
2.09663e-14
1.73346e-13
2.73868e-13
1.45967e-15
1.68264e-13
1.1936e-13
3.97918e-13
3.55204e-13
1.67216e-13
3.7688e-13
6.40883e-15
9.71655e-14
1.7011e-13
2.64392e-13
3.767e-13
1.25067e-13
2.91673e-13
2.50979e-13
9.06543e-14
2.44691e-13
2.04973e-13
1.94379e-14
3.86946e-14
6.00835e-14
3.72643e-13
3.17608e-13
1.32606e-13
2.31155e-13
3.22364e-13
8.28865e-14
3.43362e-13
7.20346e-15
1.20413e-13
2.58306e-13
3.4979e-13
3.02112e-13
2.8499e-13
3.41574e-13
3.05802e-13
2.11679e-13
2.9793e-13
1.14646e-13
3.6877e-13
3.98512e-13
1.54716e-13
2.10439e-13
3.26768e-13
3.67159e-13
1.11673e-13
3.27704e-13
3.16987e-13
1.08132e-13
2.72118e-13
3.36129e-13
2.01325e-13
2.70043e-13
3.1798e-13
3.07374e-13
2.74244e-13
4.04884e-13
2.65589e-13
1.66085e-13
2.76546e-13
6.402e-14
3.5023e-13
7.62216e-15
3.66457e-13
1.27358e-13
1.49755e-13
3.25258e-13
1.03137e-13
2.34149e-13
3.5724e-13
1.04077e-13
2.7934e-13
1.24303e-13
3.07937e-13
1.47066e-13
3.28066e-13
1.61822e-13
3.08973e-13
3.86442e-13
2.39263e-13
2.25852e-14
3.20091e-13
2.43107e-13
3.86795e-13
2.10002e-13
1.96483e-13
1.38766e-13
1.15314e-13
2.90706e-13
3.78669e-13
2.31878e-13
3.87514e-13
3.57961e-13
2.07789e-13
2.51358e-13
1.23397e-13
2.66069e-13
3.191e-13
8.93542e-14
3.62463e-13
3.50646e-13
3.59786e-13
1.89459e-13
2.55542e-13
1.25384e-13
3.62343e-13
2.81809e-13
3.4417e-13
3.07503e-13
2.08812e-14
3.05109e-13
3.87248e-13
3.69507e-13
3.06848e-13
3.31972e-13
1.9931e-13
2.37027e-13
3.66071e-13
3.46646e-13
3.21197e-13
2.36605e-13
2.8894e-13
3.80141e-13
3.03945e-13
2.27295e-13
3.78607e-13
3.45175e-14
1.03564e-13
3.99325e-13
2.68265e-13
3.75083e-13
2.24408e-13
3.09989e-13
1.27865e-13
1.70399e-13
3.78496e-13
3.47036e-13
2.57744e-13
2.48237e-13
2.50827e-13
2.93586e-13
6.68465e-14
1.68031e-13
2.64603e-13
3.17229e-13
2.91975e-13
6.58223e-14
1.35812e-13
3.12204e-13
1.23911e-13
2.59867e-13
3.05404e-13
2.62902e-13
2.63609e-15
1.89696e-13
1.33632e-13
2.69664e-13
3.14184e-13
1.59495e-13
3.35602e-13
2.81202e-14
3.18397e-13
2.92179e-13
3.30526e-13
3.33691e-13
3.38081e-13
1.02977e-14
1.8377e-13
1.53407e-13
6.00544e-14
5.65644e-14
2.821e-13
3.08381e-13
3.39349e-13
6.0989e-14
6.17734e-14
2.42843e-13
2.84137e-13
2.5302e-13
3.39817e-13
3.43598e-13
2.4515e-13
2.12387e-13
2.00845e-13
3.16548e-13
3.7551e-13
3.45536e-13
3.59217e-13
2.00108e-13
2.47989e-13
1.80185e-13
2.93916e-13
2.77852e-13
2.20891e-13
3.19667e-13
3.68121e-13
1.51856e-13
2.50044e-13
2.16584e-13
1.60642e-13
1.1199e-13
3.16097e-13
2.32289e-13
1.24026e-13
1.32704e-13
3.55108e-13
1.56452e-13
2.88945e-13
2.52818e-13
3.55753e-13
3.26293e-13
1.35451e-13
9.5232e-14
3.70322e-13
3.05821e-13
2.25383e-13
2.99184e-13
1.01818e-13
2.66412e-13
2.07174e-13
1.98545e-13
2.7918e-13
3.18963e-14
2.16583e-13
1.29958e-13
2.96336e-13
6.82608e-14
2.69368e-13
1.67586e-13
2.94021e-13
2.57864e-13
1.04917e-13
2.87993e-13
2.58207e-13
2.91344e-13
1.00774e-13
3.13465e-13
2.84532e-13
2.72745e-13
2.68537e-13
3.81955e-13
2.26978e-13
3.77492e-13
3.51643e-13
1.48331e-13
2.88673e-13
1.81463e-13
3.77984e-14
1.38073e-13
3.74031e-14
3.81107e-13
3.71737e-13
2.14321e-13
1.61824e-13
3.17436e-13
2.21575e-13
2.95728e-13
1.58767e-13
3.47133e-13
3.68446e-13
2.6947e-13
3.74899e-13
3.6499e-13
7.9155e-14
2.04364e-13
2.55464e-13
2.3409e-13
3.21267e-13
2.60784e-13
3.47715e-13
2.10343e-13
2.6395e-13
3.03565e-13
3.22129e-13
4.10547e-14
1.76218e-13
3.6741e-13
3.75446e-13
3.56804e-13
2.59153e-13
3.67642e-13
5.94113e-14
1.6748e-13
2.31113e-13
2.98573e-13
3.16252e-13
3.17995e-13
3.51296e-13
2.65291e-13
3.78945e-13
2.92506e-13
2.14554e-13
9.28026e-14
8.6099e-14
2.78129e-13
2.6695e-13
2.83531e-13
2.31791e-13
2.30373e-13
8.99246e-14
2.54534e-13
2.57945e-13
3.73682e-13
2.08836e-13
3.83538e-13
3.79137e-13
5.40527e-14
2.58667e-13
8.11059e-14
1.45634e-13
3.19626e-13
2.27771e-13
3.68647e-13
1.82159e-13
2.23985e-13
3.23489e-13
1.6858e-13
1.2141e-13
1.87308e-13
1.21274e-13
2.29516e-13
3.3481e-14
3.16449e-13
2.48002e-14
3.24959e-13
1.94944e-13
6.4755e-14
3.86224e-13
8.679e-14
2.80937e-13
2.9468e-13
1.31127e-15
2.91693e-13
4.00462e-13
2.50368e-13
1.02268e-14
2.79047e-13
3.57305e-13
3.48097e-13
3.44996e-13
3.50822e-13
2.19725e-13
3.83586e-13
8.26702e-14
3.34495e-13
3.28837e-13
3.57511e-13
3.2812e-13
2.82437e-13
3.56322e-13
3.85411e-13
1.4504e-13
2.02913e-13
1.42076e-13
3.6524e-13
2.64146e-13
3.56985e-13
1.62907e-13
3.04423e-13
2.59798e-13
3.22953e-13
1.73312e-13
3.31922e-13
2.90897e-13
9.47758e-14
2.74251e-13
1.00119e-13
1.21276e-13
3.74297e-13
2.46159e-13
2.60316e-13
3.89396e-14
2.6931e-13
2.53388e-13
2.40554e-13
2.78659e-13
1.37701e-13
1.27043e-13
4.56529e-14
2.9883e-13
1.24748e-14
2.95519e-13
3.62683e-13
5.94133e-14
3.62156e-13
3.391e-13
2.69791e-13
3.28428e-13
2.382e-13
2.43774e-13
3.79544e-13
3.72145e-13
4.02479e-13
3.0162e-13
2.56822e-13
2.87031e-13
2.85263e-13
1.2127e-13
3.38438e-13
3.40747e-13
3.84134e-13
3.33432e-13
7.77391e-14
2.81753e-13
1.3579e-13
1.56018e-13
2.70273e-13
1.16828e-13
2.01687e-13
3.4527e-13
2.61378e-13
3.90755e-13
2.97078e-13
2.61398e-13
6.6401e-14
3.08123e-13
1.18708e-13
2.58992e-13
3.10961e-13
3.15902e-13
2.35299e-13
3.52692e-13
3.07719e-13
1.80702e-13
3.26919e-13
2.56891e-13
2.92918e-13
2.15773e-13
3.27921e-13
3.4083e-16
3.27428e-13
1.50013e-13
3.55291e-13
1.87352e-13
3.13319e-13
3.27879e-13
2.97607e-13
2.52366e-13
2.52974e-13
6.84414e-14
3.62603e-13
2.41563e-13
2.30674e-15
2.95275e-13
3.44014e-13
3.83116e-13
1.32947e-13
4.05324e-13
2.37174e-13
1.47045e-13
3.35777e-14
1.80611e-13
3.29846e-13
7.145e-14
1.36053e-13
2.63667e-13
1.37906e-13
1.52692e-13
3.81781e-13
1.72851e-13
2.98709e-13
3.53291e-13
3.53591e-13
2.62528e-13
3.24567e-13
2.76955e-13
3.79183e-13
1.49931e-13
3.05097e-13
3.59806e-13
3.74777e-13
3.81783e-13
2.24988e-14
2.60018e-13
1.52067e-13
1.19582e-13
2.43526e-13
7.40736e-14
1.90578e-14
2.02213e-13
3.66552e-13
3.44148e-13
1.74493e-13
1.48638e-13
3.90577e-13
2.01528e-13
9.41785e-14
3.12266e-13
3.88871e-13
3.2061e-13
2.62842e-13
3.54261e-13
2.73102e-13