/*--------------------------------*- C++ -*----------------------------------*\
| =========                 |                                                 |
| \\      /  F ield         | OpenFOAM: The Open Source CFD Toolbox           |
|  \\    /   O peration     | Version:  1.7.0                                 |
|   \\  /    A nd           | Web:      www.OpenFOAM.com                      |
|    \\/     M anipulation  |                                                 |
\*---------------------------------------------------------------------------*/
FoamFile
{
    version     2.0;
    format      ascii;
    class       labelField;
    location    "0.33/lagrangian/defaultCloud";
    object      origId;
}
// * * * * * * * * * * * * * * * * * * * * * * * * * * * * * * * * * * * * * //


29889
(
323741
324615
324688
324745
324823
324887
324899
324955
325042
325067
325084
325150
325315
325378
325422
325432
325544
325605
325619
325643
325692
325772
325862
325871
325881
325882
325887
325902
325961
325972
326016
326028
326029
326079
326116
326145
326148
326149
326150
326192
326207
326209
326218
326226
326312
326336
326339
326359
326409
326415
326450
326462
326467
326496
326504
326524
326543
326609
326617
326618
326620
326622
326629
326676
326681
326685
326686
326693
326711
326720
326737
326741
326749
326764
326768
326782
326829
326840
326841
326845
326854
326874
326883
326898
326900
326921
326933
326942
326945
326960
326961
326978
327003
327014
327016
327021
327027
327061
327062
327081
327085
327089
327106
327122
327124
327132
327147
327159
327168
327175
327183
327200
327208
327227
327229
327238
327248
327252
327261
327269
327275
327297
327305
327309
327320
327322
327323
327330
327343
327352
327355
327360
327362
327369
327377
327380
327386
327394
327397
327399
327418
327421
327426
327437
327443
327446
327451
327458
327462
327468
327483
327488
327494
327501
327511
327521
327527
327539
327540
327543
327546
327564
327568
327571
327584
327592
327594
327604
327611
327615
327619
327621
327625
327627
327628
327639
327641
327642
327645
327647
327651
327662
327668
327670
327682
327688
327689
327690
327700
327706
327707
327712
327715
327718
327730
327731
327734
327750
327784
327785
327803
327813
327817
327820
327822
327832
327844
327854
327855
327856
327863
327886
327889
327896
327898
327914
327916
327917
327920
327925
327934
327940
327942
327944
327948
327949
327950
327951
327963
327983
327985
327989
327994
328005
328006
328015
328019
328029
328036
328037
328038
328039
328044
328050
328052
328054
328055
328058
328059
328063
328065
328071
328080
328081
328089
328092
328098
328100
328107
328112
328114
328117
328118
328131
328134
328139
328142
328146
328149
328153
328156
328162
328165
328168
328170
328171
328175
328179
328180
328181
328182
328184
328191
328202
328205
328207
328213
328217
328220
328221
328230
328237
328246
328252
328253
328260
328261
328262
328264
328267
328273
328276
328277
328279
328281
328284
328288
328289
328292
328294
328299
328300
328301
328307
328313
328331
328334
328336
328338
328340
328341
328343
328345
328348
328350
328352
328353
328361
328367
328373
328378
328379
328380
328381
328382
328384
328385
328387
328389
328398
328404
328406
328407
328418
328419
328427
328430
328435
328436
328442
328444
328448
328453
328461
328464
328476
328477
328480
328486
328489
328496
328498
328501
328503
328505
328507
328512
328513
328514
328517
328518
328523
328530
328538
328539
328542
328543
328552
328553
328556
328557
328558
328560
328565
328570
328571
328574
328576
328580
328581
328584
328587
328588
328589
328591
328592
328601
328605
328606
328612
328613
328614
328615
328616
328618
328620
328623
328625
328627
328628
328634
328635
328637
328638
328639
328641
328643
328644
328645
328646
328647
328648
328649
328651
328653
328654
328656
328657
328658
328659
328660
328661
328662
328664
328665
328666
328667
328669
328670
328672
328674
328675
328678
328681
328683
328684
328685
328687
328688
328689
328690
328694
328696
328697
328698
328699
328701
328702
328703
328706
328707
328709
328710
328712
328713
328714
328715
328719
328721
328722
328723
328726
328727
328728
328729
328730
328731
328732
328733
328734
328735
328736
328737
328738
328739
328741
328742
328743
328744
328746
328747
328748
328751
328752
328753
328754
328756
328757
328758
328762
328763
328764
328767
328768
328770
328771
328772
328773
328774
328778
328779
328781
328783
328785
328786
328787
328788
328789
328790
328795
328796
328797
328798
328799
328800
328801
328802
328804
328805
328807
328808
328810
328811
328813
328814
328815
328816
328818
328821
328823
328824
328825
328826
328828
328829
328831
328833
328835
328836
328837
328838
328840
328841
328842
328843
328844
328846
328847
328848
328849
328850
328851
328852
328853
328855
328856
328860
328862
328863
328864
328865
328867
328868
328869
328871
328872
328873
328874
328876
328878
328880
328882
328884
328885
328886
328887
328888
328889
328890
328891
328892
328893
328894
328895
328896
328897
328899
328900
328902
328903
328905
328907
328908
328910
328911
328912
328913
328915
328917
328919
328920
328921
328922
328923
328926
328929
328933
328935
328936
328937
328938
328941
328942
328943
328944
328945
328948
328949
328950
328952
328953
328955
328956
328957
328958
328960
328961
328962
328963
328964
328965
328966
328967
328969
328970
328971
328972
328975
328977
328978
328979
328980
328981
328982
328983
328984
328985
328986
328988
328990
328991
328992
328993
328994
328997
328998
329000
329001
329003
329004
329005
329006
329007
329010
329013
329014
329016
329017
329018
329019
329021
329023
329024
329025
329026
329027
329028
329029
329032
329033
329035
329036
329040
329041
329043
329046
329048
329049
329050
329051
329052
329053
329054
329055
329056
329057
329058
329060
329061
329062
329063
329064
329065
329066
329067
329068
329069
329070
329071
329072
329073
329074
329076
329077
329078
329079
329080
329081
329082
329084
329085
329086
329087
329088
329089
329090
329091
329094
329095
329097
329098
329099
329102
329104
329105
329107
329108
329110
329112
329113
329114
329116
329117
329120
329122
329124
329125
329126
329128
329130
329133
329134
329135
329136
329137
329139
329141
329143
329144
329145
329146
329147
329148
329149
329151
329152
329153
329154
329157
329158
329159
329160
329163
329165
329166
329168
329169
329170
329171
329174
329176
329179
329180
329182
329183
329186
329187
329189
329190
329191
329193
329197
329198
329199
329200
329201
329202
329203
329205
329206
329207
329210
329211
329212
329213
329214
329215
329216
329218
329220
329221
329222
329224
329225
329226
329228
329229
329230
329232
329233
329234
329235
329236
329237
329238
329239
329240
329241
329242
329244
329246
329247
329248
329249
329250
329251
329252
329253
329254
329256
329257
329262
329263
329264
329266
329267
329268
329269
329270
329274
329275
329276
329277
329278
329279
329281
329282
329284
329285
329286
329287
329289
329290
329291
329292
329295
329296
329300
329302
329303
329304
329305
329306
329308
329309
329311
329313
329314
329316
329318
329319
329320
329321
329322
329323
329324
329326
329328
329329
329330
329331
329333
329335
329337
329338
329339
329340
329341
329342
329343
329344
329345
329346
329347
329348
329349
329350
329352
329354
329355
329356
329358
329359
329360
329362
329363
329364
329367
329368
329369
329370
329371
329373
329374
329376
329378
329379
329380
329381
329383
329384
329386
329388
329389
329392
329393
329394
329395
329396
329397
329398
329399
329400
329401
329404
329405
329406
329408
329409
329410
329411
329413
329414
329416
329417
329418
329419
329420
329424
329425
329427
329428
329430
329432
329433
329435
329436
329437
329438
329439
329440
329441
329444
329445
329449
329450
329451
329452
329453
329454
329455
329456
329457
329458
329459
329460
329461
329462
329464
329466
329467
329468
329470
329471
329474
329475
329477
329478
329479
329480
329482
329483
329484
329486
329487
329488
329489
329490
329491
329492
329493
329494
329495
329496
329499
329500
329502
329503
329504
329506
329507
329508
329509
329513
329514
329515
329516
329518
329519
329520
329521
329522
329524
329525
329526
329527
329528
329529
329530
329531
329532
329534
329536
329537
329540
329542
329544
329545
329546
329549
329550
329551
329552
329557
329559
329560
329561
329563
329564
329566
329567
329569
329570
329571
329573
329574
329575
329577
329579
329580
329581
329583
329584
329585
329587
329588
329589
329592
329593
329595
329597
329598
329600
329601
329603
329604
329605
329606
329607
329609
329610
329611
329612
329613
329614
329616
329617
329619
329620
329621
329622
329624
329625
329627
329629
329630
329632
329633
329634
329635
329636
329637
329638
329639
329641
329642
329643
329645
329646
329647
329648
329649
329651
329653
329654
329655
329658
329660
329661
329662
329663
329664
329666
329667
329668
329669
329670
329671
329672
329673
329676
329677
329679
329680
329682
329683
329684
329685
329687
329689
329690
329691
329692
329693
329694
329695
329696
329697
329698
329699
329700
329701
329702
329705
329706
329707
329708
329709
329711
329712
329713
329714
329715
329716
329717
329718
329719
329721
329723
329724
329725
329726
329727
329729
329730
329731
329732
329733
329734
329735
329736
329738
329739
329740
329741
329742
329743
329744
329745
329747
329748
329750
329752
329753
329754
329755
329756
329757
329761
329762
329763
329764
329766
329768
329769
329771
329772
329773
329774
329775
329776
329781
329782
329783
329784
329786
329787
329788
329789
329792
329793
329794
329795
329796
329797
329798
329800
329801
329803
329804
329805
329806
329807
329809
329810
329812
329813
329814
329815
329818
329822
329823
329824
329826
329827
329828
329829
329830
329832
329833
329834
329835
329836
329837
329838
329839
329841
329842
329848
329850
329851
329852
329854
329855
329856
329857
329858
329859
329861
329862
329863
329864
329868
329869
329870
329871
329872
329876
329878
329879
329880
329883
329886
329888
329889
329890
329891
329892
329893
329894
329896
329897
329898
329899
329901
329902
329903
329906
329907
329909
329910
329911
329912
329913
329914
329915
329917
329918
329919
329921
329922
329923
329925
329926
329927
329928
329929
329931
329932
329933
329934
329936
329937
329938
329939
329940
329941
329942
329943
329944
329945
329946
329947
329948
329949
329950
329951
329952
329953
329954
329956
329957
329958
329959
329960
329961
329962
329963
329964
329965
329966
329967
329968
329969
329970
329971
329972
329973
329974
329975
329976
329977
329978
329979
329980
329981
329982
329983
329984
329985
329986
329987
329988
329989
329990
329991
329992
329993
329994
329995
329996
329997
329998
329999
288337
295652
295648
293125
297783
300451
294869
296508
294224
298414
299826
297203
300759
295362
296221
302147
301340
300781
299052
302867
297563
300943
302759
296457
296561
300874
305119
305296
298960
301437
302935
299176
302341
304371
303195
303189
296743
302134
304404
303900
300678
303642
302591
304461
305489
305140
304602
305649
304042
307013
302590
306425
300736
303231
306570
303726
304828
298225
306507
304563
306498
306047
307994
304349
308801
304057
306709
303054
306793
300394
302770
304649
305322
305935
302242
304325
303193
308824
303187
302404
307588
306327
306211
306634
306235
305434
309034
308342
302167
306735
308694
305912
309403
308260
300001
303079
303172
307508
308773
302635
308202
308289
307469
308161
307176
306256
304091
308732
306819
304705
302958
306883
304454
309063
305017
304219
305533
309992
306484
302071
307835
312313
303362
307025
309782
308866
306528
308414
306295
308003
307956
306857
308141
306593
307816
310073
310051
307681
310483
304304
306138
310339
311690
301452
309618
309479
308457
306564
304997
305826
308881
304695
298398
307350
308396
308029
307008
305134
312711
304833
310833
302461
304309
309056
313611
306217
302193
310315
305162
304278
304774
305907
308788
311374
313175
308702
303568
311287
310098
309302
306665
306792
309234
309913
309795
304887
312058
304766
312285
309208
309223
312293
312642
307456
309352
308310
309909
312141
304751
310169
311157
309599
311472
311540
310657
312051
307519
311599
309761
302731
308112
312208
311109
312794
307396
311286
311346
311200
310110
308908
309375
308015
315293
302883
312420
311970
308903
308416
307843
302870
309786
308066
306914
309601
312421
312401
310848
310967
311028
308009
305099
312295
310928
309442
308955
311098
308957
314348
305735
309290
309720
308710
310712
313415
303796
316054
305766
307799
309096
313324
300107
309820
312498
312423
308424
307553
311634
307602
313231
302271
309215
310516
308656
306758
310112
301735
312372
313943
310296
311310
313098
312089
311067
312890
307564
311387
310938
312448
313343
305411
314977
313885
306165
306897
308504
312597
310136
304363
308361
311311
312698
312482
314946
307833
312585
313052
310721
312083
310787
304863
311172
313069
310413
311462
309049
311351
314472
314960
307035
313103
308594
317273
308755
310544
310931
308327
307659
313752
305691
308927
314378
310733
312084
311950
314363
301641
310269
311264
310139
307882
315420
310180
312115
310991
314192
308153
311573
305355
311505
308458
310637
315891
310879
312732
307083
312438
309016
314020
313844
312761
311581
312481
312385
314858
312059
309598
308209
312174
318188
310462
313329
311816
312265
313276
312459
304005
311501
311547
312079
315497
314949
310738
310757
313696
310075
311535
308124
311006
317144
309346
311223
306450
314010
312528
316574
315282
309150
311746
314709
310250
302564
311375
305727
314143
311930
317254
312406
312494
309581
315149
313582
310805
306073
308106
312232
311162
314263
310641
317966
313472
311348
310372
313700
316206
312198
313538
313736
310013
313509
308926
313252
313299
312220
314901
313987
317143
315748
307166
313745
314129
317626
312774
312667
309919
308450
312997
315606
312013
311875
307010
311647
316043
314459
310040
310224
317588
312233
314476
311459
314138
307963
303747
310045
306729
309529
318348
314377
317682
311043
313318
312984
313620
314741
312648
308090
313393
310092
317595
315633
311274
313249
314663
314646
310884
315601
312849
304501
311087
310890
307760
306454
308886
308255
313953
316951
308552
309582
311895
314070
315870
316497
313699
316235
308190
314175
313862
308429
315793
317298
311216
312981
317932
313044
313112
316373
309620
308904
311112
313545
312974
316366
308978
312929
313254
315845
317401
311827
308088
309416
316667
317215
310934
313787
313617
315455
313137
314412
313206
296744
304900
312707
314596
314486
315733
313815
310595
312643
313932
309114
314409
316181
313828
312870
313172
315099
316374
308853
308778
310190
307959
315866
316422
312685
307960
312489
316267
315291
316785
317293
319172
310087
315802
316243
317017
315874
307254
310681
313902
313502
306745
308150
304002
311285
309756
309355
316906
311997
313578
313593
303017
318595
310388
313248
309098
310047
316507
310901
317908
312073
312143
315573
311128
305589
313033
311603
314201
315953
317991
314004
320446
312342
313941
313705
316432
313468
312179
312578
315904
313228
314391
315254
312382
315159
307658
313526
309621
313895
315938
315898
316413
310909
308084
310993
304286
315168
309478
313464
317412
314881
318570
309748
312777
313142
313562
311569
314108
309711
314473
311044
308486
315696
313808
317136
311867
309576
316379
316017
312026
313006
313618
316464
312329
315770
311925
317972
317962
310522
312098
313925
313559
315725
318054
317213
317913
315818
317998
308936
311612
314813
316030
314406
311316
315719
316328
316278
314443
314324
312370
302307
321144
312436
314332
308964
315732
316167
316153
318386
314793
319653
306844
312911
313340
310149
312361
310329
313199
314301
316591
317632
320313
307857
313807
314682
315433
314265
315069
316083
316904
315843
319550
314851
311073
306690
312987
313421
314386
312860
317070
312542
309612
320373
305318
306162
312825
315983
319571
306861
307278
312367
312364
309824
311277
315901
316978
305962
314237
314959
313047
314081
315655
316577
317538
314970
307315
312170
313606
316840
315929
312972
316720
307595
321044
315427
315610
312647
316411
320000
313335
312172
314003
312938
317187
303057
311437
312922
314494
313434
315532
311885
316622
311111
311832
310616
309441
306085
315797
313520
311072
314189
309505
317774
309953
312948
311775
311402
315449
313706
314233
310812
308512
313176
318852
314622
318488
314657
318643
321892
297657
315169
304742
313697
314686
315744
314925
315399
314368
312544
309220
316659
316327
317924
316016
315565
317153
308059
310807
315245
308575
318018
314625
315048
317594
310385
314084
313623
313763
305244
310700
315850
316202
320862
312708
311150
312751
314211
311309
312131
312644
312443
309974
317151
317883
317929
320461
321426
310439
312445
317867
311228
318401
318839
317346
316388
317078
317635
319483
315476
310323
307954
308969
312255
315148
311251
318121
315212
315412
317661
317728
313042
314508
308279
312500
311383
310949
313064
314150
315285
314144
319081
317001
308765
312512
313507
314976
320540
310039
303836
312847
313218
314958
314589
317229
317568
317218
316190
318006
312796
313890
313737
315003
315467
312417
315662
316288
315156
319992
311638
315018
310860
314186
312287
311519
315604
313362
309938
315785
311990
312227
313034
315654
308398
316556
310038
316400
311580
317640
316759
311899
321704
315718
314760
315699
306919
314618
314871
316859
318322
321680
306886
313926
312554
313281
317208
314520
316258
317370
316403
311622
307916
314727
314358
310894
316217
316848
318657
322729
312733
309724
312085
316416
317142
319442
318848
314165
314510
313554
310090
312168
314889
317034
319092
308740
308808
311068
313374
316282
315623
318027
317662
318217
299186
321942
311550
314023
311807
316163
312588
318646
318803
317035
315127
317406
318830
312857
313616
314780
315415
315343
316705
316799
311413
313126
310089
319511
306471
307204
307473
309997
315936
317007
315867
317754
317825
313213
319733
314957
323107
310592
309777
314350
316771
316434
317155
315986
313666
319574
312577
317179
318144
316640
318959
316888
322078
319546
322761
319110
318785
323214
321843
319945
321777
320986
322823
322979
320116
320888
322533
324780
320850
323042
315328
318049
317408
317171
317933
319713
318985
319240
319152
317884
320880
319475
320893
321291
320845
321058
321250
318215
318904
319338
319252
319890
321673
316428
319500
321418
320505
321234
321728
319913
320853
321681
321752
318958
319817
320684
321872
319370
319390
320082
320169
320337
319690
320020
320144
319891
321512
319137
320030
321181
322379
320857
320117
322320
322801
318810
320498
322213
322671
323000
321336
321614
321751
321757
322590
322814
320471
321515
322885
319925
321312
321755
322124
322317
319021
319792
321093
322442
320779
320910
320964
321186
322428
319554
322062
319765
320743
321663
320164
320638
320960
321935
322115
322619
323170
321555
321625
321969
322210
321682
322075
322639
322664
320755
322460
322663
322924
321117
321244
322536
323028
320657
321299
321613
321971
322380
322398
322899
323133
323544
321473
322365
323728
320751
321567
321818
322087
322111
322625
322744
323375
321637
322153
322278
322453
322495
323513
323567
323669
323723
323785
320391
321652
322684
322845
323110
323210
323223
323249
323319
323733
323892
321120
321123
321393
321661
322361
322775
322873
323001
323596
320745
322338
323431
323580
324000
320632
321338
321431
321434
323439
323456
323547
323789
321290
321756
321938
322172
322552
323033
323119
323492
323697
323758
323831
321353
321742
322236
322595
322624
323259
323396
320470
320725
321530
321748
322077
322259
322426
322484
322538
323056
323104
323222
323632
323898
324100
324116
324194
320920
322178
322541
322560
323022
323468
320943
321300
321363
321467
322563
323337
323700
323917
324110
324120
324121
324308
321168
322106
322660
323569
323587
323627
323778
323836
324088
324420
321839
322145
322331
322711
323327
323357
323498
323517
323574
323671
323771
323869
323916
323933
324182
324470
321791
321919
322487
322632
322681
322850
323328
323564
323584
323762
323953
324025
324028
324402
323207
323423
323449
324503
321702
322027
322165
322218
322311
323335
323540
323649
323769
323827
323853
323885
323902
323930
323986
324004
324019
324146
324153
324326
324357
324388
324508
319655
320790
321131
321732
323205
323712
323893
323981
324017
324199
324211
324451
324550
324555
324580
320532
320844
322150
323215
323269
323474
323877
324070
324185
324220
324267
324307
324345
324458
324478
324543
324636
321877
322252
322678
322915
323128
323543
323586
324104
324217
324334
324446
324480
324524
324644
324672
321445
322239
322288
322550
322599
323004
323135
323333
323404
323573
323634
323637
323852
324043
324115
324174
324210
324368
324450
324553
324574
324592
324623
324713
324785
324796
321920
322399
322735
322963
323674
323808
323856
324241
324247
324248
324276
324418
324590
324629
324674
324733
324818
324842
324864
322140
322938
323123
323554
323735
324087
324255
324557
324573
324765
324786
324834
324876
321943
321964
322134
322421
322819
323005
323150
323298
323620
323677
323779
323830
323915
324012
324062
324260
324328
324585
324763
324789
324826
324858
324930
324939
324953
322048
322234
322946
323506
323740
323805
323920
324488
324820
324877
324885
324948
324949
324966
324994
324999
325017
325027
325028
321764
322053
323610
323890
324400
324406
324417
324665
324702
324769
324873
324929
324933
325055
325068
325076
321298
321929
323945
324064
324147
324206
324401
324484
324499
324514
324549
324603
324647
324691
324700
324750
324758
325071
325083
325086
325087
325102
325111
325135
325149
325155
321676
321854
322360
323050
323244
323613
324026
324063
324145
324249
324336
324729
324731
324801
324918
324967
325096
325108
325126
325130
325146
325167
325210
321204
321890
322119
322205
322235
323549
323825
323867
324041
324268
324641
324662
324809
324816
324845
324897
324902
324952
324974
325034
325123
325134
325166
325169
325177
325178
325190
325237
325241
325247
325257
322228
322957
323308
323414
323935
323952
324073
324234
324340
324463
324544
324652
324709
324744
324788
324832
324857
324986
324993
325105
325168
325193
325198
325235
325245
325275
325276
325278
322128
322578
323284
323416
323535
323643
323749
324483
324531
324646
324829
325110
325253
325272
325290
325299
325342
325349
325365
325371
323379
323443
323541
323815
323875
324721
324913
324970
325023
325026
325229
325303
325308
325325
325355
325399
325403
322191
323152
323361
323430
323813
323927
324136
324261
324286
324444
324654
324692
324706
324764
324957
325175
325201
325321
325329
325335
325341
325345
325364
325379
325389
325396
325405
325407
325413
325415
325424
325427
325436
325443
325444
325452
325464
325471
325472
321800
321989
323666
323844
324128
324376
324577
324775
324812
325003
325021
325029
325234
325243
325251
325263
325318
325400
325430
325455
325458
325462
325467
325485
325486
325495
325504
321519
321644
321997
322564
322603
323040
323041
323204
324049
324725
324817
324964
324973
325161
325213
325261
325305
325362
325381
325469
325479
325481
325494
325512
325513
325518
325520
325521
325522
325526
325531
325537
325554
325557
325564
322039
323684
324265
324309
324342
324878
324990
325012
325032
325065
325224
325310
325359
325437
325534
325535
325543
325556
325558
325570
325581
325582
325586
325587
325595
325601
325604
325610
325617
325626
325627
322197
322333
322967
323290
323686
323979
324318
325005
325204
325279
325386
325438
325496
325532
325547
325552
325566
325573
325574
325578
325600
325608
325623
325639
325641
325642
325650
325656
325673
322676
322945
323299
323377
323689
323812
324125
324221
324449
324562
324597
324720
324828
325233
325293
325333
325337
325434
325524
325550
325599
325611
325624
325638
325646
325654
325657
325660
325663
325666
325669
325686
325687
325689
325696
325697
325698
325702
325708
325710
325713
325728
322833
322955
323585
324208
324620
324703
324968
325066
325383
325395
325459
325548
325562
325598
325648
325662
325664
325685
325691
325694
325695
325699
325711
325715
325716
325717
325718
325725
325727
325733
325749
325752
325761
325763
325774
321795
322168
322695
322976
323163
323288
324233
324337
324452
324594
324618
324715
324808
325159
325212
325283
325406
325500
325539
325585
325653
325671
325677
325756
325758
325765
325768
325780
325782
325783
325784
325785
325786
325798
325803
325810
325815
325816
325822
325823
319677
321375
322518
323310
323454
323600
323736
323802
323984
324033
324107
324348
324350
324762
324793
325045
325070
325162
325273
325296
325420
325423
325502
325577
325579
325640
325649
325658
325684
325700
325736
325744
325745
325755
325799
325819
325824
325825
325826
325827
325831
325832
325833
325840
325841
325842
325843
325845
325848
325849
325851
325854
325855
325858
325863
325880
321371
324099
324455
324770
324779
325088
325258
325269
325271
325652
325693
325760
325771
325808
325852
325861
325865
325879
325885
325888
325891
325893
325894
325899
325901
325914
325922
325926
322204
322383
322609
322756
323731
324472
324778
324905
325064
325097
325151
325197
325214
325219
325439
325636
325730
325731
325742
325791
325850
325873
325874
325886
325889
325900
325915
325916
325925
325931
325935
325937
325939
325949
325954
325957
325964
325967
325974
325980
323231
323338
323373
324253
324254
324347
324802
324850
324854
324932
325113
325147
325232
325292
325442
325528
325704
325759
325762
325773
325919
325920
325928
325945
325948
325969
325975
325983
325986
325987
325988
325989
325990
325997
325999
326015
326023
326031
322539
323070
323434
324860
325014
325093
325202
325533
325542
325632
325701
325800
325970
326011
326013
326027
326032
326038
326039
326049
326053
326054
326055
326056
326059
326060
326062
326064
326067
322256
322516
322872
323455
324668
325114
325306
325328
325477
325613
325659
325726
325764
325778
325788
325801
325813
325837
325952
325993
326008
326019
326026
326042
326052
326066
326070
326071
326082
326086
326088
326093
326097
326099
326101
326103
326111
326119
326126
321836
323389
324616
324746
324987
325183
325449
325565
325754
325781
325794
326002
326047
326051
326092
326106
326109
326124
326129
326130
326138
326146
326151
326158
326163
323162
323970
324203
324473
324584
324950
325411
325877
325984
326108
326118
326122
326127
326131
326154
326161
326164
326166
326171
326174
326185
326188
326193
326194
326195
326198
326201
326202
326208
326220
326224
326227
323458
325101
325226
325265
325294
325350
325382
325393
325435
325484
325838
325938
326095
326113
326170
326180
326189
326214
326215
326216
326223
326225
326230
326232
326234
326236
326240
326244
326249
326251
326253
326266
326273
326274
323261
323271
323475
323799
323987
324925
325173
325463
326003
326020
326078
326083
326100
326169
326191
326228
326231
326233
326254
326258
326259
326264
326265
326270
326271
326279
326282
326283
326290
326291
326295
326297
326303
326310
326318
326319
326321
322634
323593
323819
324398
324909
324940
325053
325082
325361
325391
325478
325811
325868
325934
325977
325992
326014
326237
326248
326252
326276
326289
326298
326299
326300
326302
326307
326311
326315
326317
326328
326329
326331
326332
326350
326356
326361
326367
322887
323678
323797
324282
324613
324659
324777
325048
325152
325343
325404
325489
325734
325737
326160
326250
326287
326301
326308
326346
326349
326352
326374
326380
326385
326387
326396
326398
326399
326400
326411
323884
324077
324545
324719
325094
325228
325280
325347
325575
325606
325790
325860
325956
326262
326358
326369
326386
326391
326419
326423
326429
326430
326439
326461
326472
326477
324170
324330
325281
325705
325722
325809
325941
326120
326142
326238
326243
326392
326394
326403
326420
326433
326435
326440
326476
326478
326479
326480
326481
326486
326490
326494
326502
326503
326517
326523
326526
323782
323868
323996
324246
324283
324724
324739
325069
325209
325394
325668
325724
325769
325844
325940
326087
326091
326176
326178
326261
326397
326417
326443
326458
326460
326505
326511
326512
326515
326530
326534
326539
326546
326547
326548
326551
326553
326554
326555
326565
323229
323390
323664
323720
323755
324319
324843
325323
325419
325530
325583
325676
326245
326344
326427
326436
326471
326510
326522
326527
326529
326550
326558
326561
326571
326576
326579
326580
326582
326583
326584
326587
326595
326597
326603
326604
326612
326613
326616
326623
322245
323296
323355
323367
324689
324810
325075
325590
325592
325712
325743
325787
325905
325968
326017
326035
326322
326428
326444
326489
326536
326570
326599
326600
326628
326632
326633
326636
326640
326645
326647
326648
326651
326668
322827
323709
324144
324707
324871
324922
325250
325789
325805
325830
325927
326112
326140
326491
326562
326575
326589
326608
326621
326637
326655
326675
326679
326684
326687
326689
326690
326691
326695
326696
326697
326707
326710
326713
326727
317386
323245
323795
325332
325451
325514
326219
326241
326364
326432
326542
326634
326665
326670
326719
326723
326726
326728
326734
326751
326753
326754
326757
326758
326759
323482
324173
324214
324381
324392
324461
324576
324741
325506
325525
325878
326135
326354
326407
326452
326454
326464
326508
326545
326644
326708
326718
326733
326744
326746
326756
326761
326767
326769
326771
326779
326785
326790
326794
326795
326799
326801
326802
326813
326814
326817
326820
323234
323472
323713
324956
325199
325334
325376
325661
325985
326313
326324
326463
326549
326611
326657
326704
326730
326783
326789
326791
326797
326798
326810
326822
326826
326831
326835
326836
326844
326851
326852
326853
326855
326858
326859
326871
322571
322997
323894
324192
324353
324608
324936
325516
326132
326167
326383
326408
326445
326574
326588
326592
326601
326664
326666
326669
326816
326828
326861
326866
326868
326880
326885
326887
326888
326895
326896
326899
326902
326909
326918
326923
324086
325192
325195
325218
325572
325678
325932
326043
326296
326376
326382
326448
326642
326667
326725
326766
326803
326842
326892
326894
326897
326904
326912
326913
326919
326926
326929
326936
326943
326953
326956
326959
326962
326966
323168
323744
324103
324650
325750
325959
325976
326075
326173
326278
326316
326389
326406
326431
326514
326521
326653
326765