/*--------------------------------*- C++ -*----------------------------------*\
| =========                 |                                                 |
| \\      /  F ield         | OpenFOAM: The Open Source CFD Toolbox           |
|  \\    /   O peration     | Version:  1.7.0                                 |
|   \\  /    A nd           | Web:      www.OpenFOAM.com                      |
|    \\/     M anipulation  |                                                 |
\*---------------------------------------------------------------------------*/
FoamFile
{
    version     2.0;
    format      ascii;
    class       Cloud<passiveParticle>;
    location    "0.33";
    object      positions;
}
// * * * * * * * * * * * * * * * * * * * * * * * * * * * * * * * * * * * * * //

29889
(
(0.0425794 0.00739728 3.60664e-08) 2112
(0.0375727 0.00631836 3.36985e-09) 1849
(0.039111 0.00738973 -2.20825e-09) 2110
(0.0401879 0.00769257 2.87666e-09) 2240
(0.04062 0.00644548 -2.47429e-09) 1981
(0.0422672 0.00529391 1.6919e-09) 1592
(0.0426642 0.00598708 -7.11696e-10) 1852
(0.0409993 0.00719512 9.96358e-09) 2111
(0.0413915 0.00470455 2.35536e-09) 1461
(0.0411246 0.00496635 1.13659e-08) 1591
(0.0377912 0.00714535 -1.85043e-08) 2109
(0.0403111 0.00607043 2.91538e-08) 1851
(0.0425946 0.00657537 -5.1702e-10) 1982
(0.0394928 0.00593617 -1.96444e-08) 1850
(0.0407019 0.00574712 -4.66783e-09) 1721
(0.0419106 0.00541707 1.49392e-08) 1721
(0.0349117 0.00580039 -3.57683e-09) 1717
(0.0422059 0.00454764 -1.89766e-08) 1462
(0.0370746 0.00526063 -2.52533e-09) 1589
(0.0344726 0.00543559 4.45799e-09) 1717
(0.0316299 0.00554961 1.15603e-08) 1715
(0.0419434 0.00465643 -6.21537e-11) 1461
(0.0388145 0.00577864 -3.7636e-08) 1720
(0.0306251 0.00593342 8.04408e-09) 1844
(0.0358607 0.00563283 -3.64798e-12) 1718
(0.0363114 0.00615124 -1.07349e-08) 1848
(0.0310374 0.00636001 7.75718e-09) 1975
(0.0284635 0.00563792 2.42745e-10) 1713
(0.0402834 0.00521977 1.25763e-09) 1591
(0.0378027 0.00604675 2.66806e-09) 1849
(0.0392799 0.00645956 2.39514e-09) 1980
(0.0242917 0.00518146 3.117e-08) 1580
(0.0342734 0.00705547 1.46491e-08) 2107
(0.038395 0.00548597 7.11282e-09) 1719
(0.0353925 0.00529335 2.44164e-08) 1588
(0.0431987 0.00509802 -4.50796e-09) 1592
(0.034043 0.00538581 -7.04892e-10) 1717
(0.0355425 0.00563967 -2.97458e-10) 1718
(0.0433807 0.00516694 -1.32425e-09) 1592
(0.0283289 0.00604134 -5.62038e-12) 1843
(0.0319688 0.00535827 4.84278e-09) 1715
(0.0363695 0.00439591 -4.6369e-08) 1328
(0.0386849 0.00378487 9.91434e-10) 1200
(0.0264424 0.00609012 2.13429e-09) 1842
(0.0334305 0.00507584 -5.10017e-09) 1586
(0.0250459 0.00538951 2.47887e-08) 1711
(0.0321062 0.00700417 5.49697e-09) 2105
(0.0310795 0.00558717 -1.55018e-09) 1715
(0.0401357 0.00542561 1.92182e-08) 1720
(0.0237025 0.00477951 -1.85879e-09) 1450
(0.0404195 0.00552587 1.25528e-08) 1721
(0.0335388 0.00603259 -3.83491e-10) 1846
(0.04077 0.00544692 2.42239e-09) 1721
(0.0394385 0.00701738 -3.03099e-09) 2110
(0.0378974 0.00509446 -2.11998e-08) 1589
(0.0329857 0.00473519 1.15618e-09) 1456
(0.023885 0.0053064 2.4888e-09) 1580
(0.0278303 0.00681497 8.55503e-09) 1973
(0.0301451 0.00470708 7.85179e-10) 1454
(0.0416669 0.00336714 -5.72179e-09) 1071
(0.027679 0.00558525 -2.40668e-08) 1713
(0.0182467 0.00521404 1.01667e-08) 1576
(0.0272354 0.00504117 7.8298e-09) 1582
(0.0436886 0.00709147 -3.708e-08) 2112
(0.0335958 0.0049433 1.22891e-09) 1586
(0.0330662 0.00582153 -2.65683e-11) 1716
(0.0353983 0.00658022 -2.66361e-08) 1978
(0.0436318 0.00485493 1.64456e-09) 1462
(0.030355 0.00491508 1.96584e-08) 1584
(0.0364327 0.00479961 6.61205e-09) 1458
(0.0297918 0.00538624 -8.17774e-09) 1714
(0.0347302 0.00546278 -4.82902e-10) 1717
(0.0340656 0.00484642 9.50916e-10) 1457
(0.0223931 0.00566308 1.21701e-08) 1709
(0.0274849 0.00508378 -2.16078e-09) 1582
(0.0252574 0.00551559 7.3481e-10) 1711
(0.0210862 0.00503206 -6.60823e-09) 1578
(0.0262553 0.00584968 2.27491e-09) 1842
(0.0311541 0.00443078 -3.09845e-10) 1325
(0.0327992 0.00665907 -1.03639e-08) 1976
(0.0293503 0.00574905 1.53527e-08) 1714
(0.0282378 0.005992 -7.86754e-11) 1843
(0.0372968 0.00565014 3.19493e-08) 1719
(0.0429523 0.00536591 -6.72407e-09) 1722
(0.0224218 0.00506704 4.9504e-10) 1579
(0.0311777 0.00513051 1.69487e-08) 1585
(0.0279158 0.00637471 2.43117e-08) 1973
(0.0422417 0.00548101 -2.27449e-08) 1722
(0.0225236 0.00473755 1.11487e-09) 1449
(0.0271057 0.00585435 5.64228e-12) 1842
(0.0302808 0.00600642 -1.52866e-08) 1844
(0.0360902 0.00492394 -4.08754e-09) 1588
(0.0190368 0.00506558 5.57007e-09) 1576
(0.0399569 0.00494199 1.38977e-08) 1590
(0.0417389 0.00611743 -1.24018e-08) 1851
(0.0356784 0.0063862 9.60472e-11) 1978
(0.0147284 0.00518459 -7.23591e-09) 1573
(0.0301827 0.00451687 -2.29967e-08) 1454
(0.0229484 0.00580267 2.36706e-09) 1709
(0.0210494 0.00589954 8.77856e-10) 1838
(0.0146354 0.00509605 1.98781e-08) 1573
(0.0384874 0.00505528 -7.56157e-09) 1589
(0.0371319 0.00434044 1.9925e-09) 1329
(0.0259517 0.00505779 5.82556e-09) 1581
(0.025868 0.00591855 1.5673e-08) 1841
(0.0215355 0.00648271 -8.37241e-10) 1968
(0.0312823 0.00461603 3.38307e-10) 1455
(0.024147 0.00580003 -6.10965e-09) 1710
(0.029204 0.00541835 4.05607e-09) 1714
(0.0294824 0.00548625 1.87597e-08) 1714
(0.0237899 0.00612271 9.99212e-10) 1840
(0.0175251 0.00493621 1.16123e-08) 1575
(0.0273263 0.00447411 -7.64564e-09) 1322
(0.0299885 0.00629326 3.24431e-08) 1844
(0.0229548 0.00595254 6.76429e-10) 1839
(0.0411666 0.00561082 3.788e-08) 1721
(0.0359059 0.0044437 2.90777e-10) 1328
(0.0169027 0.00496704 9.96171e-09) 1575
(0.0375738 0.0049373 8.59385e-08) 1589
(0.0192067 0.00601999 4.64737e-09) 1836
(0.0353129 0.00449396 -5.55716e-11) 1457
(0.0178748 0.00500655 -5.30931e-10) 1575
(0.0360796 0.00529336 1.07321e-07) 1588
(0.0195025 0.00489023 2.11101e-09) 1447
(0.0251462 0.00651138 1.21688e-10) 1971
(0.0320421 0.00609181 -4.10655e-10) 1845
(0.0166907 0.00508384 -2.33875e-08) 1574
(0.0164992 0.00510512 9.12115e-10) 1574
(0.0169783 0.00538883 5.07671e-10) 1705
(0.0235926 0.00500096 -1.90058e-08) 1580
(0.0435508 0.00521776 -2.36084e-08) 1592
(0.0175222 0.00544759 -2.70326e-09) 1705
(0.0376335 0.00479024 6.23433e-08) 1459
(0.0422051 0.00460559 1.61629e-07) 1462
(0.0146544 0.00498517 -1.95123e-09) 1573
(0.0390343 0.00585526 9.87724e-08) 1850
(0.0416384 0.00455289 -6.13389e-09) 1461
(0.0196867 0.00680417 1.22795e-09) 1967
(0.0257896 0.00575706 3.38364e-10) 1711
(0.0234126 0.00496604 8.93658e-12) 1580
(0.0370909 0.00504348 4.68353e-08) 1589
(0.0359668 0.00466435 4.65598e-08) 1458
(0.0284455 0.00465944 -1.59974e-08) 1453
(0.0139529 0.00546076 1.78831e-09) 1702
(0.0202854 0.00617376 -6.92538e-09) 1837
(0.0238211 0.00532815 -7.13488e-10) 1580
(0.0218647 0.00462264 -8.77223e-10) 1448
(0.0109046 0.00576311 -2.49718e-09) 1700
(0.0269495 0.00390118 4.46055e-09) 1192
(0.0417629 0.00606186 2.89312e-08) 1851
(0.0252416 0.00702572 1.30392e-08) 2101
(0.0310974 0.00543132 -3.77347e-09) 1715
(0.0133204 0.00491469 -3.74474e-09) 1572
(0.0220122 0.00474279 -3.27976e-08) 1449
(0.0234451 0.00592654 -7.42078e-09) 1840
(0.0288777 0.00490673 1.23102e-08) 1583
(0.041924 0.00472904 6.15202e-12) 1461
(0.0428684 0.00466071 1.27229e-08) 1462
(0.0174088 0.00548821 -1.11472e-08) 1705
(0.0168038 0.005089 -7.12204e-09) 1575
(0.0170944 0.00552073 7.4271e-10) 1705
(0.0169376 0.00569981 7.72403e-09) 1705
(0.0408351 0.0047959 1.0776e-07) 1461
(0.0387557 0.00504248 1.27431e-07) 1590
(0.040178 0.00488792 -1.42242e-07) 1460
(0.0233786 0.00420456 -6.50086e-09) 1320
(0.0171322 0.0056259 8.80693e-10) 1705
(0.0241806 0.00518953 -2.04165e-08) 1580
(0.0334706 0.00522858 -6.2324e-08) 1586
(0.0138763 0.00504488 1.01158e-08) 1572
(0.025666 0.00529251 -2.46125e-08) 1581
(0.0156718 0.00510939 -6.01393e-09) 1574
(0.0265899 0.00640426 -1.88573e-08) 1972
(0.0300166 0.0050927 -3.05542e-09) 1584
(0.0263448 0.00449076 6.72455e-09) 1452
(0.0397692 0.00411937 2.90981e-09) 1330
(0.0425047 0.00436477 5.08151e-08) 1332
(0.0176027 0.00527763 6.70615e-09) 1575
(0.0432731 0.00490843 1.06164e-08) 1592
(0.0286267 0.00564413 -6.51339e-10) 1713
(0.0251301 0.00517226 7.07324e-10) 1581
(0.040694 0.00437533 4.11458e-08) 1331
(0.0328927 0.00539053 -1.25663e-07) 1716
(0.0141495 0.00508826 -6.20772e-09) 1572
(0.0165722 0.00505297 7.94738e-09) 1574
(0.0394765 0.00505113 8.79805e-10) 1590
(0.0194376 0.00512212 -2.53692e-08) 1577
(0.0226284 0.00545013 1.34209e-08) 1709
(0.0428408 0.00412701 1.57648e-08) 1332
(0.041804 0.0048492 5.17997e-07) 1461
(0.0422557 0.0057059 -2.27256e-07) 1722
(0.00695633 0.00501604 -6.73607e-09) 1566
(0.0165291 0.00507796 5.10292e-09) 1574
(0.0210584 0.00538667 4.43451e-08) 1708
(0.0221771 0.00499062 6.54952e-10) 1579
(0.0380096 0.00592289 1.57928e-07) 1849
(0.0255096 0.00495 2.15938e-08) 1581
(0.0180911 0.00521922 -1.1954e-08) 1576
(0.0159123 0.00529753 -3.27377e-09) 1574
(0.0295803 0.00603799 2.31926e-08) 1844
(0.0258779 0.00546109 -9.53842e-09) 1711
(0.0151147 0.00487803 2.51095e-09) 1443
(0.0310273 0.00531146 -1.45387e-07) 1585
(0.0327671 0.00621792 1.63743e-08) 1846
(0.0102092 0.00507261 8.56477e-09) 1569
(0.0359589 0.004589 -4.26452e-08) 1458
(0.0327591 0.00482049 9.1036e-09) 1456
(0.0180792 0.004678 1.87762e-08) 1446
(0.0328393 0.00478012 4.41613e-10) 1456
(0.0427 0.00499931 3.99521e-07) 1592
(0.0312524 0.00462869 -2.47896e-08) 1455
(0.0293562 0.00460994 -6.66444e-09) 1454
(0.0100057 0.00516132 3.57486e-09) 1569
(0.0345073 0.00510507 -1.31932e-09) 1587
(0.0365842 0.00521623 8.59687e-09) 1588
(0.0115534 0.00492005 -6.27413e-09) 1570
(0.0373672 0.00472263 1.89327e-08) 1459
(0.0412651 0.00466337 -1.85577e-07) 1461
(0.0175544 0.00537815 1.28367e-08) 1705
(0.0298228 0.0049184 6.2024e-08) 1584
(0.0417074 0.0038878 -2.31422e-09) 1201
(0.0230021 0.00525654 -1.19133e-08) 1579
(0.0252591 0.00543434 2.25072e-08) 1711
(0.0266791 0.00493243 -8.33687e-09) 1582
(0.0386891 0.00435946 -1.18112e-09) 1330
(0.0272809 0.00616537 2.67759e-09) 1842
(0.0124362 0.00514165 4.8504e-10) 1571
(0.0167865 0.00476572 -1.06953e-08) 1445
(0.0208213 0.00469713 2.21928e-08) 1448
(0.0263111 0.00595405 1.90865e-08) 1842
(0.022988 0.00485821 4.01981e-08) 1449
(0.0389891 0.00483462 -1.75302e-09) 1460
(0.015349 0.00570582 -4.15745e-11) 1703
(0.0207032 0.00499704 -8.51125e-09) 1578
(0.0303034 0.00502837 2.15853e-07) 1584
(0.0383327 0.00485571 -3.0663e-07) 1459
(0.0273931 0.00559597 4.58003e-08) 1712
(0.0436726 0.00504542 2.80237e-07) 1592
(0.0234128 0.00524544 2.02355e-08) 1580
(0.0318957 0.00505068 1.3714e-08) 1585
(0.0136338 0.00500796 6.68828e-09) 1572
(0.0349526 0.00514817 4.78644e-09) 1587
(0.0254944 0.00491397 7.79414e-09) 1581
(0.0352003 0.00483524 -1.8513e-07) 1457
(0.0235041 0.00550458 1.80707e-07) 1710
(0.0064512 0.00501873 3.90853e-09) 1566
(0.028096 0.00497153 -4.29886e-08) 1583
(0.0322091 0.00447614 -1.76523e-08) 1326
(0.0383838 0.00461302 -9.02268e-08) 1459
(0.0418951 0.00524848 1.56948e-07) 1591
(0.0378254 0.00429596 7.91252e-08) 1329
(0.010049 0.00508692 2.43129e-08) 1569
(0.0183842 0.00528625 2.89932e-08) 1576
(0.0336428 0.00520441 -2.3338e-09) 1586
(0.0430826 0.00480405 4.64003e-08) 1462
(0.0100528 0.00506175 -1.32417e-09) 1569
(0.038854 0.00400332 -4.0881e-09) 1200
(0.0401629 0.0045927 -2.60844e-07) 1460
(0.0192876 0.00547053 -1.50167e-08) 1706
(0.0244331 0.00511292 -6.66188e-09) 1580
(0.0305448 0.00477829 1.2794e-07) 1454
(0.03295 0.00440134 -9.48449e-09) 1326
(0.0365115 0.00387466 1.23445e-07) 1198
(0.0404614 0.00437841 1.29646e-07) 1331
(0.0173729 0.00589276 -1.35989e-08) 1835
(0.0226569 0.00464306 7.05307e-10) 1449
(0.0103823 0.00508743 -7.04168e-09) 1569
(0.0393773 0.0061283 -1.07682e-08) 1850
(0.0301458 0.00474718 -5.95614e-10) 1454
(0.0323742 0.00480926 -1.94885e-09) 1456
(0.0298443 0.004994 -1.29756e-07) 1584
(0.0242412 0.00454641 1.63083e-08) 1450
(0.0298196 0.00464501 1.60713e-08) 1454
(0.0114025 0.00482454 -8.10284e-09) 1440
(0.0421226 0.00428675 -8.31438e-08) 1332
(0.0285735 0.00471704 -3.5415e-08) 1453
(0.0361442 0.00440372 -4.8765e-08) 1328
(0.0142141 0.00492123 -7.77139e-09) 1572
(0.0320263 0.00405716 4.20376e-08) 1195
(0.038585 0.0044507 -4.94382e-09) 1330
(0.00783079 0.0050425 -2.04271e-08) 1567
(0.0105766 0.00520811 6.53774e-12) 1569
(0.0231646 0.00541806 1.09907e-08) 1709
(0.0376005 0.0045259 -2.29187e-07) 1459
(0.0263651 0.00473788 1.7181e-08) 1452
(0.00805747 0.00496451 -9.4922e-09) 1567
(0.0234585 0.00501172 -8.18075e-09) 1580
(0.0271626 0.00482305 -8.24686e-10) 1452
(0.0289413 0.00467776 4.27716e-08) 1453
(0.037259 0.00389103 -1.31628e-07) 1199
(0.0212637 0.00498793 2.64482e-08) 1578
(0.0386628 0.00431432 2.62002e-08) 1330
(0.0347459 0.00426744 1.4458e-08) 1327
(0.0397905 0.00288913 1.66534e-08) 940
(0.0375533 0.0043583 2.40882e-07) 1329
(0.0316469 0.00447854 -1.91314e-07) 1325
(0.016935 0.00512178 -1.01635e-08) 1575
(0.0169538 0.00484199 -1.16562e-10) 1445
(0.0407088 0.00383281 -2.58879e-10) 1201
(0.0431347 0.00395647 2.70002e-07) 1202
(0.00841887 0.0049462 -1.01192e-08) 1568
(0.00991842 0.00492941 4.99111e-09) 1569
(0.0313546 0.00529613 2.15537e-07) 1585
(0.0348003 0.00439446 -2.85882e-08) 1327
(0.0379213 0.00455377 -1.16813e-07) 1459
(0.00684292 0.00507282 -5.27485e-09) 1566
(0.0177835 0.00498156 1.38151e-09) 1575
(0.039121 0.0045481 -5.10015e-08) 1460
(0.0387146 0.00377985 6.14525e-10) 1200
(0.0324693 0.0047672 1.41432e-08) 1456
(0.0087049 0.00519907 1.32255e-10) 1568
(0.0234841 0.00413276 4.17053e-08) 1320
(0.0332055 0.00397603 -3.08009e-07) 1196
(0.0136752 0.00483734 -9.12516e-10) 1442
(0.0404941 0.0031917 9.05144e-08) 941
(0.00818254 0.00516113 5.46179e-09) 1567
(0.0126748 0.00554077 -5.84074e-10) 1701
(0.0205714 0.00506783 -1.30973e-08) 1577
(0.0237992 0.00548053 -1.248e-09) 1710
(0.0141851 0.00538183 4.87746e-10) 1702
(0.0170107 0.00528484 2.28454e-10) 1575
(0.0289115 0.00468133 2.58382e-09) 1453
(0.0137479 0.00452581 -1.63834e-09) 1442
(0.0246547 0.00547662 1.41139e-09) 1710
(0.0431679 0.00316834 7.13357e-08) 942
(0.0103463 0.00502403 -3.51622e-09) 1569
(0.0102873 0.00524305 -1.11639e-08) 1569
(0.00531014 0.00503157 9.14798e-10) 1565
(0.0414017 0.00312427 5.36767e-08) 941
(0.0240445 0.00501054 1.42878e-07) 1580
(0.00701642 0.00514406 -5.97466e-09) 1566
(0.0312071 0.00486069 1.29225e-07) 1455
(0.00509483 0.00500191 3.07057e-09) 1565
(0.0236741 0.00485842 4.19346e-08) 1450
(0.0162205 0.00494286 -2.01658e-08) 1574
(0.0215485 0.00490695 1.35314e-09) 1578
(0.0384358 0.00394345 1.50528e-08) 1199
(0.0132342 0.00546203 3.26692e-11) 1702
(0.0321027 0.00542316 9.42987e-08) 1715
(0.0422884 0.00405223 -2.39383e-08) 1202
(0.0254299 0.00547322 2.35385e-08) 1711
(0.0331678 0.00395209 -3.4364e-07) 1196
(0.00852754 0.005141 7.98966e-09) 1568
(0.0164635 0.00473477 1.53342e-09) 1444
(0.0408779 0.0034482 -2.31495e-07) 1071
(0.0130513 0.00524985 -1.0329e-09) 1572
(0.0192542 0.00471565 2.58762e-08) 1446
(0.0253234 0.00469344 -2.01296e-09) 1451
(0.0252968 0.00440098 -2.73772e-09) 1321
(0.0059556 0.00511116 -8.53113e-11) 1565
(0.0432843 0.00352169 3.17331e-08) 1072
(0.0412314 0.00371218 -4.71027e-09) 1201
(0.0403149 0.00381973 5.32689e-07) 1201
(0.0344152 0.00445886 -6.36545e-09) 1327
(0.0327898 0.00394958 2.39858e-08) 1196
(0.0334856 0.00391275 -3.21694e-08) 1196
(0.037218 0.00420075 -1.57769e-08) 1329
(0.0261179 0.00440556 -6.88203e-08) 1321
(0.0269096 0.00435396 1.26532e-07) 1322
(0.0415687 0.00373041 1.07657e-07) 1201
(0.0296023 0.00378042 3.98649e-09) 1194
(0.0304338 0.00381054 1.96384e-08) 1194
(0.00546032 0.00505457 -9.72337e-10) 1565
(0.0359436 0.0044638 -9.33295e-07) 1328
(0.0114563 0.00490589 1.25637e-08) 1570
(0.0372083 0.0038062 5.01151e-07) 1199
(0.0109637 0.00529896 -1.70952e-08) 1570
(0.0207588 0.00497376 -9.65166e-08) 1578
(0.0331355 0.00437232 -1.15104e-08) 1326
(0.0208617 0.00502692 -5.59804e-09) 1578
(0.0279931 0.00558147 -7.02122e-09) 1713
(0.0157338 0.00466713 4.79943e-10) 1444
(0.0414747 0.00309072 -2.91163e-07) 941
(0.0236035 0.00466553 1.40782e-08) 1450
(0.0387981 0.00394337 -1.70999e-07) 1200
(0.0258102 0.00474088 1.60506e-08) 1451
(0.041831 0.0034225 1.67423e-07) 1071
(0.0347195 0.00440149 -1.34733e-07) 1327
(0.0422706 0.00252595 5.49676e-08) 812
(0.0164059 0.00531805 1.14221e-09) 1574
(0.0339518 0.0034553 1.93224e-07) 1067
(0.0225226 0.00438503 5.20452e-10) 1319
(0.0426904 0.00261752 -3.86265e-07) 812
(0.0303612 0.00424276 -1.048e-07) 1324
(0.0295409 0.0039165 8.61312e-09) 1194
(0.032806 0.00400108 5.18539e-07) 1196
(0.041371 0.00285064 -4.7789e-09) 811
(0.0417898 0.00187234 2.38158e-08) 551
(0.0372558 0.00367982 1.99552e-07) 1199
(0.0409384 0.0033574 -3.36055e-08) 1071
(0.0281943 0.00447027 -5.97036e-08) 1323
(0.00562081 0.00502319 8.32935e-10) 1565
(0.0156367 0.00486824 2.30679e-08) 1444
(0.0412621 0.00292798 -1.19805e-07) 941
(0.0421024 0.00319144 -2.40236e-09) 942
(0.0170757 0.00496973 -1.09932e-09) 1575
(0.0304182 0.00437999 -2.91184e-07) 1324
(0.0431309 0.00194902 6.03441e-07) 552
(0.0425131 0.00236159 7.68197e-08) 682
(0.00998684 0.00500892 -1.09102e-08) 1569
(0.037535 0.00324453 9.65785e-08) 939
(0.0273776 0.00441911 -4.81572e-08) 1322
(0.0426658 0.00264722 6.48537e-07) 812
(0.0420527 0.00242539 -4.39696e-07) 682
(0.0114005 0.00485728 -6.69864e-09) 1440
(0.0214961 0.00476842 4.73955e-08) 1448
(0.0371141 0.00384567 6.48182e-08) 1199
(0.0313676 0.00414212 9.83316e-09) 1325
(0.0423974 0.00187838 1.50191e-07) 552
(0.0400936 0.0024086 3.18753e-08) 680
(0.0401193 0.00306179 1.44311e-08) 940
(0.0420053 0.00205557 3.11657e-07) 682
(0.00580155 0.00509592 -1.3155e-09) 1565
(0.00734708 0.00513216 -1.61907e-09) 1567
(0.0274759 0.00432903 -7.825e-08) 1322
(0.0428927 0.00215806 3.5051e-07) 682
(0.0433711 0.000142521 -3.59969e-09) 32
(0.0410987 0.00208461 5.28278e-08) 681
(0.0133187 0.00500935 -9.32648e-09) 1572
(0.043281 0.000344372 -3.8361e-08) 32
(0.022095 0.00487574 -1.35579e-08) 1449
(0.0390057 0.00364066 -4.8008e-08) 1070
(0.0339057 0.0040603 -5.61943e-09) 1197
(0.0408496 0.00337212 4.76759e-07) 1071
(0.0420189 0.00218056 -4.93119e-07) 682
(0.0202387 0.00446142 -3.01056e-08) 1317
(0.041896 0.00258084 1.21831e-06) 811
(0.0374907 0.00295999 2.76755e-07) 939
(0.0252118 0.00431816 -1.14301e-07) 1321
(0.0425532 0.00162156 -1.1232e-06) 422
(0.0426473 0.000774656 -5.40552e-09) 162
(0.0253457 0.00469953 -1.35421e-07) 1451
(0.00546553 0.00498782 1.75922e-08) 1565
(0.0415641 0.00207243 -7.66126e-07) 681
(0.0421982 0.0017507 6.09167e-07) 552
(0.0189784 0.00474712 -1.12929e-08) 1446
(0.0226829 0.00442509 3.59459e-08) 1319
(0.0418299 0.00191305 -5.77302e-07) 551
(0.0417651 0.00208187 1.30888e-07) 681
(0.0226886 0.00419512 5.17707e-08) 1319
(0.0140531 0.00491579 -7.87949e-08) 1572
(0.0138695 0.0049941 1.91366e-08) 1572
(0.0117217 0.00516511 -1.8007e-08) 1570
(0.0405233 0.00239743 -1.06135e-07) 681
(0.0413325 0.00204357 -2.17048e-07) 681
(0.00491246 0.0051524 9.26647e-09) 1564
(0.0420441 0.000431256 -6.71687e-07) 162
(0.0418677 0.000661145 -4.83516e-08) 161
(0.0418748 0.000687768 -2.31882e-07) 161
(0.0414433 0.00168567 -4.06049e-07) 551
(0.0389571 0.00285406 -1.73492e-07) 810
(0.0416663 0.000688789 -5.59945e-09) 161
(0.0385494 0.00265399 9.18056e-09) 809
(0.0417142 0.000582729 -8.16314e-07) 161
(0.0393011 0.00330626 -1.7417e-09) 1070
(0.0410728 0.00126864 -9.1919e-09) 421
(0.0412918 0.00102821 3.73508e-07) 291
(0.0415159 0.000357616 -6.51301e-07) 31
(0.0187438 0.00449649 -5.59066e-08) 1446
(0.041171 0.00106885 3.88183e-07) 291
(0.0398538 0.00207506 1.22091e-07) 680
(0.0397585 0.00268328 -1.47463e-08) 810
(0.0405926 0.00197823 -3.99598e-08) 551
(0.0397766 0.00248684 -3.77042e-08) 810
(0.0303688 0.00380792 -6.84292e-08) 1194
(0.0399258 0.00230956 4.68209e-07) 680
(0.0407731 0.00137826 -4.05056e-08) 421
(0.0299964 0.00374065 -3.45151e-09) 1194
(0.0393502 0.00302272 1.46649e-08) 940
(0.0207008 0.00459197 -4.56237e-08) 1448
(0.0134966 0.00481833 -3.72414e-08) 1442
(0.0221769 0.00450212 2.35782e-08) 1449
(0.0308407 0.00364001 7.31087e-08) 1065
(0.0262452 0.00414023 1.43114e-07) 1322
(0.0383786 0.00361607 2.93825e-07) 1069
(0.0401312 0.00187307 4.11267e-08) 550
(0.0400946 0.00158104 2.89486e-07) 420
(0.0406101 0.00052333 -4.39623e-06) 161
(0.040447 0.000951183 8.71537e-07) 291
(0.0174074 0.00474669 -9.63927e-08) 1445
(0.0385633 0.00306693 -5.98772e-08) 939
(0.0205268 0.00443773 2.71774e-09) 1317
(0.0403213 0.000752605 -2.49902e-07) 161
(0.0156346 0.00479025 -8.04256e-09) 1444
(0.00417298 0.0050574 4.75164e-09) 1564
(0.0400357 0.00147001 -1.54553e-07) 420
(0.00543288 0.00510307 -2.7124e-10) 1565
(0.0397897 0.00146415 1.19748e-07) 420
(0.0397836 0.00153296 -4.49931e-09) 420
(0.038511 0.00299191 2.83864e-09) 939
(0.0392528 0.00220491 -1.34735e-08) 680
(0.0271993 0.00397709 1.78579e-09) 1192
(0.0379551 0.00368124 1.4047e-06) 1199
(0.00313687 0.00504865 1.23753e-08) 1563
(0.0395489 0.00154457 -1.00205e-07) 420
(0.0398375 0.000723094 7.55814e-06) 160
(0.0393505 0.00162433 4.4976e-07) 420
(0.0375338 0.0034184 6.58659e-07) 1069
(0.0388297 0.00213707 8.90093e-08) 680
(0.00568712 0.00501277 1.0762e-08) 1565
(0.0375013 0.00275014 2.322e-07) 809
(0.039005 0.00181926 2.50251e-07) 550
(0.0394267 0.000824024 1.05092e-06) 290
(0.0379082 0.00248762 -5.13192e-07) 809
(0.0299764 0.00402372 -2.53641e-07) 1194
(0.0273738 0.00419126 -1.1125e-07) 1322
(0.0370281 0.00244856 -3.63276e-08) 809
(0.0391544 0.000890673 -4.21758e-09) 290
(0.0359314 0.00307526 -9.97445e-08) 938
(0.00802335 0.0049835 -1.9256e-08) 1567
(0.0384367 0.00197009 -1.91901e-08) 549
(0.0385985 0.00162282 3.60744e-08) 420
(0.032896 0.00310358 3.14774e-09) 936
(0.0383241 0.00140232 3.23435e-08) 419
(0.0387105 0.000914676 4.21297e-07) 290
(0.0269391 0.00404522 -1.85253e-08) 1192
(0.0369514 0.00328656 5.37238e-08) 1069
(0.0382798 0.00136302 5.27204e-09) 419
(0.038399 0.00150022 -8.9672e-08) 419
(0.0384273 0.00108054 5.10632e-09) 289
(0.00461678 0.00503328 -9.44963e-11) 1564
(0.0152768 0.00467846 3.0208e-09) 1443
(0.0384611 0.000934919 2.05117e-07) 289
(0.0181855 0.00460461 -1.564e-09) 1446
(0.0177304 0.00451072 -2.94867e-08) 1445
(0.0380891 0.00113504 -2.2805e-07) 289
(0.0379137 0.0020261 -3.26852e-07) 549
(0.0377807 0.0020932 5.43454e-07) 679
(0.0332061 0.00376795 4.5905e-07) 1196
(0.022022 0.0046302 -1.70773e-08) 1449
(0.0211553 0.00464299 2.30353e-07) 1448
(0.0370769 0.00318451 -2.50546e-08) 939
(0.0374686 0.00197028 -3.15303e-07) 549
(0.00599007 0.00558052 3.34721e-09) 1695
(0.0371775 0.00173283 6.40886e-07) 549
(0.0369498 0.00189661 2.83494e-07) 549
(0.0213957 0.00482611 -7.29275e-08) 1448
(0.0145728 0.00481391 -2.13428e-09) 1443
(0.0371623 0.00241635 -3.68617e-07) 679
(0.0230059 0.00402826 8.07724e-08) 1189
(0.0239686 0.00485277 8.64022e-08) 1450
(0.0170723 0.00495316 1.87881e-07) 1575
(0.0243546 0.00418817 6.0444e-08) 1320
(0.035602 0.00319169 2.95806e-07) 938
(0.0214078 0.00459489 8.7688e-08) 1448
(0.0269868 0.00384843 1.13364e-08) 1192
(0.0355466 0.00287114 -3.17747e-07) 938
(0.0306359 0.00365848 -2.80612e-09) 1065
(0.0363322 0.00331569 3.56358e-07) 1068
(0.0335113 0.00333845 2.82564e-07) 1066
(0.0371831 0.00103418 3.06319e-07) 289
(0.0339634 0.00298948 1.70862e-08) 937
(0.0309212 0.00367316 -5.32473e-09) 1195
(0.00647805 0.00517205 -1.81913e-08) 1566
(0.00194111 0.00506913 -1.68988e-08) 1561
(0.0369182 0.00137535 -3.14366e-07) 418
(0.0107945 0.00481678 -2.03715e-09) 1440
(0.0368166 0.00119559 1.66316e-08) 288
(0.013452 0.00484562 4.03551e-09) 1442
(0.0280272 0.00397492 8.76521e-09) 1193
(0.0363788 0.00208544 2.0195e-07) 678
(0.0367938 0.000315273 3.8141e-08) 28
(0.0173882 0.00432436 -6.5653e-08) 1315
(0.0323169 0.00381875 -3.76686e-08) 1196
(0.0171651 0.00451673 -1.53688e-07) 1445
(0.0338547 0.00326804 -3.66941e-07) 1067
(0.00554057 0.00503732 1.14266e-09) 1565
(0.036778 0.000232644 1.08419e-07) 28
(0.00716231 0.00499198 -1.66657e-08) 1566
(0.0219888 0.00462015 1.17957e-08) 1448
(0.0063144 0.00512009 3.70676e-09) 1566
(0.0358086 0.00183381 8.63134e-07) 548
(0.0358124 0.00165665 -1.17997e-07) 548
(0.0263527 0.0041718 -3.21113e-08) 1322
(0.0359329 0.00203289 6.16813e-07) 548
(0.0182237 0.00455384 6.34762e-08) 1446
(0.0123413 0.00495311 -2.20061e-08) 1571
(0.0303791 0.00407106 2.6976e-07) 1194
(0.0352823 0.00296527 -5.48929e-08) 937
(0.0230133 0.00448713 1.24702e-07) 1319
(0.0355495 0.00232318 -8.77476e-07) 678
(0.0339512 0.00307102 4.46953e-07) 937
(0.0354299 0.00188455 -3.56293e-08) 548
(0.0328466 0.00325577 -1.59208e-08) 936
(0.0357665 0.000635211 3.80327e-09) 158
(0.0352165 0.00175629 1.62556e-08) 547
(0.034853 0.00243384 9.7618e-08) 677
(0.0145045 0.0047176 -7.37711e-09) 1443
(0.0356664 0.000437633 2.67563e-07) 158
(0.0345175 0.00241399 1.45314e-08) 677
(0.0349995 0.00241445 1.27599e-07) 677
(0.0353677 0.00126099 -2.9149e-08) 418
(0.026593 0.00304288 1.17916e-09) 932
(0.0250137 0.00372505 9.0889e-09) 1191
(0.0342129 0.0023435 -1.43459e-08) 677
(0.0340249 0.00342043 -2.26819e-08) 1067
(0.0332674 0.00347456 -6.16928e-09) 1066
(0.0353092 0.000358555 -1.03784e-07) 27
(0.0294205 0.00357726 -6.59825e-08) 1064
(0.00210809 0.00505707 -1.45921e-08) 1562
(0.0283857 0.00347795 2.73522e-07) 1063
(0.0265032 0.00400416 -5.90118e-07) 1192
(0.0349199 0.00118726 1.47077e-08) 287
(0.0237801 0.00431109 -5.02994e-08) 1320
(0.0342414 0.00275053 -1.86851e-07) 807
(0.0348032 0.00114802 1.13374e-07) 287
(0.0348545 0.000624349 -6.85762e-08) 157
(0.0285446 0.00402263 6.57418e-07) 1193
(0.0235719 0.0042884 1.68944e-07) 1320
(0.0338047 0.00202617 7.32247e-07) 547
(0.0170123 0.00450526 4.75169e-08) 1445
(0.00518276 0.00513942 -2.42608e-09) 1565
(0.0158561 0.00476768 -5.8698e-08) 1444
(0.0340981 0.00182098 9.43313e-08) 547
(0.0344167 0.00119357 1.34725e-07) 287
(0.0187908 0.00455619 3.67054e-08) 1446
(0.0270985 0.00350877 1.25153e-08) 1062
(0.0341215 0.00112249 1.59572e-07) 287
(0.0335907 0.0023125 -2.70229e-08) 676
(0.0153344 0.00481011 -5.83135e-08) 1443
(0.0340694 0.000902936 2.4727e-08) 287
(0.0337438 0.0012585 1.97317e-08) 417
(0.0337877 0.00138419 2.6046e-08) 417
(0.0340056 0.000510961 -1.29997e-08) 157
(0.0303671 0.00350514 2.5236e-09) 1064
(0.033835 0.00100245 6.77532e-09) 287
(0.0253784 0.00338152 -8.21141e-09) 1061
(0.033307 0.00210251 1.72754e-08) 676
(0.0130287 0.00512632 3.64677e-08) 1572
(0.00385806 0.00505435 2.8715e-09) 1563
(0.0279284 0.00362697 -4.46301e-07) 1063
(0.0334571 0.00133737 1.01289e-06) 416
(0.0332652 0.00211358 8.77671e-07) 676
(0.0310908 0.00243476 7.7806e-09) 675
(0.0336104 0.000471911 -4.08575e-07) 156
(0.0331031 0.00193314 -2.96128e-07) 546
(0.0333399 0.000912661 -1.14447e-06) 286
(0.0225736 0.00407496 -1.27216e-07) 1189
(0.0330756 0.00225501 1.06186e-06) 676
(0.0204732 0.00410301 -3.77193e-08) 1317
(0.0212678 0.00439817 1.94575e-07) 1318
(0.0329592 0.00165966 1.39378e-07) 546
(0.0216223 0.00418504 4.15851e-08) 1318
(0.0255877 0.00370871 2.58866e-08) 1191
(0.0313879 0.00277298 3.83442e-07) 805
(0.0328655 0.00144045 -4.34792e-07) 416
(0.0203444 0.00466267 6.56189e-08) 1447
(0.0293965 0.00324604 1.88205e-08) 934
(0.00374375 0.0050478 1.46492e-08) 1563
(0.0122685 0.00489579 6.35828e-08) 1571
(0.0317252 0.00270133 -2.00691e-07) 805
(0.00651059 0.00499146 -1.21185e-09) 1566
(0.0309513 0.00272821 -5.81671e-09) 805
(0.00278844 0.00507128 8.45399e-10) 1562
(0.0189002 0.00431656 6.12483e-09) 1316
(0.0327772 0.000499411 6.11619e-09) 156
(0.0312251 0.00295394 7.89073e-08) 935
(0.0290284 0.00330715 -2.84168e-08) 1063
(0.0299267 0.00322876 -1.94978e-08) 934
(0.0321855 0.00189563 1.2043e-08) 546
(0.00189919 0.00505346 1.64296e-08) 1561
(0.0320205 0.00296008 -9.70359e-09) 935
(0.0169288 0.00462798 3.13257e-08) 1445
(0.0314539 0.00230744 5.18444e-09) 675
(0.0320725 0.00154501 8.82472e-09) 415
(0.0015593 0.00507075 1.16206e-09) 1561
(0.0312315 0.00277983 -8.80483e-08) 805
(0.0194664 0.00412331 1.05362e-07) 1317
(0.0276012 0.00378556 -8.37969e-07) 1192
(0.025342 0.00403521 5.97749e-07) 1191
(0.0230108 0.00421156 4.02226e-07) 1319
(0.0318783 0.00121558 1.69661e-07) 285
(0.0294057 0.00296595 -1.03748e-07) 934
(0.0315557 0.00171625 8.1234e-07) 545
(0.0290367 0.00382073 -8.54453e-07) 1193
(0.0315507 0.00164757 -2.51563e-07) 545
(0.0314577 0.00133654 5.1442e-08) 415
(0.0309078 0.00228639 7.7699e-07) 675
(0.0136701 0.00472485 2.464e-08) 1442
(0.00862932 0.00487116 1.14273e-09) 1438
(0.0308151 0.00191719 -2.30693e-08) 545
(0.0305811 0.00233706 -4.66604e-07) 674
(0.020656 0.00407933 -1.22963e-07) 1188
(0.0309702 0.0021607 9.9179e-08) 675
(0.0312262 0.00123863 -9.07242e-08) 415
(0.0285111 0.00403791 3.55065e-07) 1193
(0.0112476 0.00460701 -8.39782e-10) 1440
(0.0313343 0.000360255 -2.79903e-08) 25
(0.0311026 0.000873801 -1.79973e-08) 285
(0.0218477 0.00393672 -8.21378e-08) 1188
(0.0182003 0.00426361 -3.97392e-08) 1316
(0.0308487 0.00159213 -1.60254e-07) 415
(0.029531 0.00313435 2.39772e-08) 934
(0.0177976 0.00415072 -2.01557e-09) 1315
(0.0293422 0.0030618 6.91425e-09) 934
(0.0305526 0.00138584 1.44931e-08) 414
(0.0305717 0.00134859 -5.39202e-08) 414
(0.0307915 0.000575171 -2.24417e-08) 155
(0.0292754 0.0026208 1.79836e-07) 804
(0.0291575 0.00280209 1.52797e-07) 804
(0.0292453 0.00288409 2.70696e-07) 934
(0.025708 0.00301479 -3.36452e-07) 931
(0.0244104 0.00342998 3.75223e-07) 1060
(0.0303766 0.001142 1.71111e-07) 284
(0.0115556 0.00488543 -1.62285e-07) 1440
(0.0248619 0.00350346 3.93187e-08) 1061
(0.0124987 0.005043 -1.81616e-08) 1571
(0.0295517 0.00313473 6.73661e-07) 934
(0.0301768 0.000857855 -1.13295e-08) 284
(0.015111 0.00504461 -3.01714e-08) 1573
(0.0291265 0.00314448 -6.13117e-09) 933
(0.0296736 0.00223377 -1.35718e-07) 674
(0.0299793 0.00141226 -3.50731e-07) 414
(0.0297431 0.00233475 -8.66247e-07) 674
(0.0175802 0.00473643 2.93124e-08) 1445
(0.0181732 0.00424289 1.59023e-09) 1316
(0.0262809 0.00394587 -1.70429e-07) 1192
(0.028995 0.0024021 -4.73025e-07) 673
(0.0199428 0.00450803 1.42985e-07) 1447
(0.0194134 0.00408946 1.55734e-07) 1317
(0.0298458 0.00112474 -2.78764e-07) 284
(0.029619 0.00194474 9.07853e-07) 544
(0.029657 0.00145625 -4.30735e-08) 414
(0.0294148 0.00217558 -2.60211e-07) 674
(0.0265301 0.0037815 1.86134e-07) 1192
(0.0113803 0.00489708 2.71459e-08) 1570
(0.024545 0.00357785 1.74303e-07) 1060
(0.0155616 0.00483374 5.32888e-08) 1444
(0.0290709 0.00231506 3.37958e-07) 673
(0.0293708 0.00182575 -2.73152e-07) 544