/*--------------------------------*- C++ -*----------------------------------*\
| =========                 |                                                 |
| \\      /  F ield         | OpenFOAM: The Open Source CFD Toolbox           |
|  \\    /   O peration     | Version:  1.7.x                                 |
|   \\  /    A nd           | Web:      www.OpenFOAM.com                      |
|    \\/     M anipulation  |                                                 |
\*---------------------------------------------------------------------------*/
FoamFile
{
    version     2.0;
    format      ascii;
    class       volScalarField;
    location    "2200";
    object      epsilon;
}
// * * * * * * * * * * * * * * * * * * * * * * * * * * * * * * * * * * * * * //

dimensions      [0 2 -3 0 0 0 0];

internalField   nonuniform List<scalar> 
5460
(
858.653
860.29
861.638
862.768
863.733
864.577
865.331
866.023
866.672
867.297
867.913
868.538
869.194
869.904
870.704
871.64
872.777
874.206
876.048
878.471
881.698
886.03
891.863
899.717
910.277
924.432
943.339
968.49
1001.8
1045.72
1103.3
1178.33
1275.33
1399.48
1556.35
1751.29
1988.57
2270.21
2594.75
2956.43
3344.98
3746.36
4144.23
4521.8
4863.66
5157.22
5393.56
5567.71
5678.43
5727.66
5719.7
5660.38
5556.34
5414.47
5241.57
5044.21
4828.61
4600.5
4365.02
4126.57
3888.74
3654.34
3425.48
3203.75
2990.32
2786.06
2591.58
2407.27
2233.35
2069.83
1916.56
1773.28
1639.63
1515.21
1399.55
1292.22
1192.72
1100.6
1015.4
936.655
863.939
796.828
734.923
677.847
625.243
576.777
532.134
491.021
453.164
418.308
386.215
356.665
329.456
304.399
281.322
260.068
240.489
222.453
205.837
190.526
176.416
163.411
151.422
140.366
130.167
120.757
112.07
104.049
96.6392
89.7913
83.4603
77.6047
72.1866
67.1714
62.5272
58.2249
54.2379
50.5416
47.1135
43.9331
40.9812
38.2404
35.6947
33.3292
31.1304
29.0855
27.1839
25.4128
23.7709
22.2939
922.212
922.503
922.903
923.366
923.862
924.381
924.917
925.469
926.039
926.636
927.27
927.96
928.734
929.628
930.699
932.022
933.705
935.893
938.781
942.632
947.791
954.709
963.976
976.35
992.806
1014.59
1043.27
1080.85
1129.78
1193.09
1274.39
1377.86
1508.13
1669.98
1867.8
2104.9
2382.6
2699.41
3050.41
3427.06
3817.68
4208.36
4584.31
4931.27
5236.77
5491.05
5687.62
5823.37
5898.29
5915.06
5878.29
5793.81
5668.09
5507.72
5319.18
5108.68
4882.09
4644.83
4401.75
4156.99
3913.94
3675.22
3442.8
3218.13
3002.28
2796.02
2599.88
2414.22
2239.16
2074.7
1920.65
1776.72
1642.53
1517.66
1401.63
1293.97
1194.21
1101.87
1016.48
937.581
864.731
797.508
735.509
678.352
625.679
577.154
532.461
491.305
453.411
418.523
386.403
356.83
329.6
304.525
281.434
260.166
240.576
222.53
205.904
190.586
176.469
163.458
151.464
140.403
130.2
120.786
112.097
104.073
96.6602
89.8101
83.477
77.6196
72.2
67.1834
62.5379
58.2346
54.2466
50.5494
47.1205
43.9394
40.9868
38.2455
35.6993
33.3334
31.1342
29.0889
27.1871
25.4157
23.7735
22.2963
1057.12
1057.42
1057.81
1058.26
1058.74
1059.27
1059.85
1060.48
1061.17
1061.95
1062.83
1063.88
1065.15
1066.74
1068.78
1071.44
1074.98
1079.7
1086.02
1094.49
1105.8
1120.82
1140.67
1166.74
1200.76
1244.83
1301.5
1373.81
1465.24
1579.69
1721.26
1893.99
2101.31
2345.53
2627.12
2944.15
3291.95
3663.09
4047.75
4434.47
4811.04
5165.37
5486.39
5764.69
5992.95
6166.28
6282.22
6340.76
6344.01
6295.84
6201.36
6066.39
5897.04
5699.33
5479.09
5241.86
4992.84
4736.84
4478.14
4220.41
3966.58
3718.93
3479.13
3248.35
3027.44
2817
2617.41
2428.89
2251.46
2085.02
1929.33
1784.03
1648.7
1522.87
1406.04
1297.72
1197.4
1104.59
1018.8
939.562
866.429
798.967
736.764
679.434
626.615
577.964
533.164
491.916
453.943
418.987
386.808
357.184
329.911
304.799
281.674
260.378
240.763
222.695
206.051
190.716
176.585
163.561
151.555
140.484
130.273
120.851
112.154
104.124
96.7059
89.8509
83.5136
77.6523
72.2293
67.2096
62.5615
58.2557
54.2656
50.5665
47.1359
43.9532
40.9993
38.2568
35.7095
33.3426
31.1426
29.0965
27.1939
25.422
23.7793
22.3017
1275.7
1275.97
1276.48
1277.11
1277.82
1278.63
1279.53
1280.56
1281.75
1283.16
1284.88
1287.06
1289.88
1293.59
1298.54
1305.18
1314.09
1326.02
1341.92
1362.96
1390.59
1426.62
1473.18
1532.84
1608.57
1703.77
1822.15
1967.58
2143.81
2354.13
2600.77
2884.48
3203.9
3555.33
3932.59
4327.26
4729.21
5127.35
5510.37
5867.54
6189.31
6467.77
6696.86
6872.51
6992.58
7056.77
7066.44
7024.43
6934.82
6802.58
6633.24
6432.52
6206.06
5959.21
5697.01
5424.18
5145.12
4863.88
4584.04
4308.65
4040.11
3780.2
3530.21
3290.97
3063.04
2846.77
2642.34
2449.79
2269.02
2099.8
1941.78
1794.54
1657.59
1530.4
1412.43
1303.15
1202.02
1108.53
1022.17
942.451
868.909
801.099
738.602
681.022
627.988
579.155
534.198
492.816
454.728
419.672
387.407
357.709
330.372
305.204
282.031
260.693
241.041
222.942
206.269
190.91
176.757
163.714
151.691
140.606
130.381
120.947
112.24
104.201
96.7746
89.9123
83.5685
77.7015
72.2733
67.2491
62.597
58.2876
54.2942
50.5923
47.1592
43.9742
41.0182
38.2738
35.7249
33.3565
31.1552
29.108
27.2044
25.4315
23.7881
22.3099
1597.61
1598.35
1599.4
1600.59
1601.91
1603.41
1605.15
1607.22
1609.77
1613
1617.22
1622.82
1630.34
1640.46
1654.08
1672.3
1696.51
1728.42
1770.05
1823.86
1892.67
1979.74
2088.66
2223.27
2387.45
2584.81
2818.3
3089.72
3399.28
3745.17
4123.33
4527.43
4949.23
5378.97
5806.13
6220.02
6610.43
6968.13
7285.17
7555.16
7773.29
7936.44
8043.08
8093.24
8088.34
8031.05
7925.12
7775.16
7586.42
7364.5
7115.09
6843.68
6555.4
6254.96
5946.63
5634.34
5321.72
5012.07
4708.27
4412.72
4127.26
3853.18
3591.32
3342.18
3105.98
2882.82
2672.65
2475.3
2290.52
2117.95
1957.12
1807.53
1668.6
1539.75
1420.39
1309.93
1207.81
1113.48
1026.41
946.09
872.039
803.797
740.931
683.037
629.736
580.673
535.518
493.967
455.732
420.551
388.177
358.385
330.965
305.727
282.492
261.1
241.402
223.261
206.553
191.162
176.981
163.914
151.869
140.764
130.522
121.073
112.353
104.301
96.8646
89.9929
83.6406
77.7662
72.3313
67.3012
62.6437
58.3296
54.332
50.6263
47.1898
44.0018
41.0432
38.2964
35.7453
33.375
31.1719
29.1232
27.2182
25.4441
23.7997
22.3207
2058.26
2059.11
2060.77
2062.84
2065.34
2068.45
2072.38
2077.45
2084.14
2093.11
2105.24
2121.65
2143.77
2173.35
2212.52
2263.8
2330.16
2414.99
2522.04
2655.37
2819.15
3017.34
3253.37
3529.63
3847
4204.36
4598.37
5023.37
5471.6
5933.71
6399.37
6857.99
7299.37
7714.16
8094.29
8433.03
8725.09
8966.55
9154.72
9288.04
9365.95
9388.84
9357.98
9275.49
9144.39
8968.43
8752.14
8500.6
8219.27
7913.75
7589.53
7251.71
6904.95
6553.35
6200.56
5849.88
5504.27
5166.42
4838.61
4522.67
4219.95
3931.28
3657.13
3397.63
3152.74
2922.28
2705.98
2503.48
2314.38
2138.17
1974.29
1822.12
1681.02
1550.34
1429.43
1317.66
1214.43
1119.16
1031.29
950.291
875.663
806.928
743.643
685.39
631.78
582.452
537.071
495.323
456.919
421.591
389.09
359.188
331.672
306.35
283.044
261.588
241.835
223.646
206.895
191.466
177.252
164.155
152.084
140.956
130.694
121.227
112.49
104.424
96.9744
90.0912
83.7287
77.8452
72.4022
67.3648
62.7009
58.3811
54.3784
50.6681
47.2275
44.0358
41.0739
38.3242
35.7704
33.3977
31.1926
29.1419
27.2353
25.4596
23.8141
22.334
2708.42
2711.36
2715.71
2720.96
2727.53
2736.11
2747.51
2762.89
2783.77
2812.08
2850.22
2901.06
2967.96
3054.76
3165.74
3305.49
3478.71
3689.92
3943.08
4241.05
4585.05
4974.11
5404.73
5870.72
6363.45
6872.43
7386.09
7892.69
8381.16
8841.69
9266.09
9647.93
9982.52
10266.7
10498.6
10677.5
10803.4
10876.9
10899.3
10871.8
10796.4
10674.7
10509.2
10302.3
10057
9776.75
9465.71
9128.4
8769.73
8394.75
8008.37
7615.19
7219.33
6824.39
6433.56
6049.63
5675.14
5312.29
4962.94
4628.5
4309.92
4007.73
3722.04
3452.75
3199.55
2962.05
2739.78
2532.25
2338.89
2159.07
1992.12
1837.36
1694.06
1561.5
1439
1325.88
1221.5
1125.25
1036.55
954.836
879.598
810.342
746.609
687.971
634.031
584.419
538.791
496.831
458.242
422.754
390.114
360.09
332.47
307.056
283.668
262.143
242.327
224.084
207.285
191.814
177.563
164.433
152.332
141.178
130.892
121.404
112.649
104.566
97.1018
90.2054
83.8312
77.9372
72.4849
67.4391
62.7678
58.4413
54.4326
50.717
47.2716
44.0756
41.1099
38.3567
35.7999
33.4244
31.2168
29.1639
27.2553
25.4779
23.831
22.3498
3659.13
3666.67
3678.47
3693.98
3714.81
3743.2
3781.83
3834.14
3904.3
3997.11
4117.93
4272.44
4466.44
4705.39
4993.92
5335.24
5730.44
6177.91
6672.93
7207.53
7770.82
8349.71
8929.9
9497.12
10038.3
10542.2
11000.2
11406.3
11756.9
12050.2
12286.2
12465.9
12591.4
12664.8
12688.9
12666.4
12599.9
12492
12345.1
12161.4
11943
11691.8
11409.5
11098.2
10759.9
10397.2
10013
9610.92
9194.75
8768.68
8336.85
7903.19
7471.26
7044.25
6624.93
6215.81
5819.11
5436.75
5070.32
4720.99
4389.47
4076.05
3780.67
3503.02
3242.65
2999
2771.48
2559.46
2362.25
2179.14
2009.38
1852.21
1706.85
1572.53
1448.52
1334.11
1228.62
1131.42
1041.9
959.483
883.642
813.866
749.686
690.662
636.389
586.487
540.608
498.429
459.651
423.997
391.212
361.062
333.331
307.82
284.347
262.747
242.866
224.564
207.714
192.197
177.906
164.74
152.607
141.424
131.113
121.602
112.826
104.725
97.2445
90.3336
83.9463
78.0406
72.5779
67.5228
62.8431
58.5092
54.4938
50.7722
47.3215
44.1208
41.1507
38.3936
35.8333
33.4547
31.2443
29.1889
27.2781
25.4987
23.8503
22.3677
5130.13
5164.73
5211.06
5270.71
5349.75
5455.04
5594.01
5774.82
6005.65
6293.94
6645.56
7063.92
7549.05
8096.89
8699.04
9342.86
10012.2
10689
11354.2
11990.2
12581.6
13116.4
13586.1
13986.1
14314.8
14573.1
14763.9
14891.3
14960
14975
14941.1
14863.1
14745.2
14591.2
14404.6
14188.2
13944.7
13676.2
13384.6
13071.4
12738
12385.3
12014.3
11625.9
11221
10801
10367.7
9923.44
9470.97
9013.44
8554.11
8096.21
7642.73
7196.43
6759.8
6335.1
5924.39
5529.47
5151.78
4792.39
4451.91
4130.55
3828.15
3544.35
3278.58
3030.22
2798.6
2583.02
2382.71
2196.92
2024.83
1865.64
1718.53
1582.7
1457.37
1341.82
1235.35
1137.29
1047.03
963.976
887.579
817.321
752.722
693.333
638.742
588.564
542.443
500.052
461.088
425.271
392.343
362.068
334.226
308.617
285.059
263.382
243.434
225.073
208.17
192.606
178.273
165.069
152.903
141.69
131.351
121.816
113.018
104.898
97.3999
90.4733
84.072
78.1537
72.6797
67.6146
62.9259
58.5838
54.5612
50.8331
47.3765
44.1705
41.1957
38.4344
35.8703
33.4883
31.2748
29.2167
27.3034
25.5218
23.8717
22.3877
7799.78
7946.86
8133.25
8366.47
8663.01
9036.29
9495.75
10045.8
10683.8
11399.7
12175.2
12986.3
13804.6
14601.3
15349.8
16028.3
16621.2
17119.7
17520.8
17826
18040.3
18170.6
18224.8
18211
18137.7
18012.5
17842.7
17634.8
17394.5
17126.6
16835.5
16524.5
16196.5
15854
15498.8
15132.2
14755.4
14369.2
13974.4
13571.2
13160
12740.7
12313.3
11877.7
11434
10982.5
10523.9
10059.5
9591.16
9121
8651.49
8185.13
7724.42
7271.69
6829.17
6398.97
5983.05
5583.15
5200.7
4836.78
4492.01
4166.61
3860.47
3573.21
3304.3
3053.1
2818.92
2601.03
2398.66
2211.03
2037.31
1876.66
1728.26
1591.28
1464.95
1348.51
1241.25
1142.51
1051.64
968.054
891.188
820.517
755.556
695.849
640.977
590.551
544.212
501.628
462.493
426.525
393.464
363.069
335.122
309.421
285.779
264.029
244.016
225.596
208.641
193.03
178.654
165.413
153.212
141.968
131.602
122.042
113.222
105.081
97.565
90.622
84.206
78.2745
72.7887
67.7129
63.0147
58.664
54.6337
50.8986
47.4359
44.2242
41.2444
38.4786
35.9104
33.5247
31.3079
29.2468
27.3309
25.547
23.895
22.4094
14195.7
14892.2
15584.6
16326.7
17156.9
18069.9
19032.2
19996
20911.2
21731.3
22420.2
22956.1
23331.9
23553.5
23635.7
23598.1
23461.9
23246.6
22969.1
22642.7
22278
21883.3
21465.3
21029.5
20580.5
20122.4
19658.1
19190.4
18721.1
18251.8
17783.7
17317.6
16854
16393.1
15934.8
15478.9
15025.2
14573.2
14122.5
13672.6
13222.9
12772.6
12321.1
11867.6
11411.5
10952.4
10490.3
10025.8
9559.88
9093.93
8629.71
8169.15
7714.25
7266.99
6829.36
6403.33
5990.79
5593.49
5212.91
4850.19
4506.06
4180.85
3874.55
3586.88
3317.38
3065.48
2830.53
2611.84
2408.67
2220.24
2045.74
1884.35
1735.25
1597.62
1470.68
1353.69
1245.92
1146.71
1055.42
971.456
894.246
823.266
758.027
698.071
642.975
592.349
545.83
503.084
463.805
427.706
394.528
364.029
335.987
310.201
286.485
264.667
244.592
226.117
209.112
193.456
179.04
165.762
153.528
142.254
131.86
122.275
113.432
105.271
97.7365
90.7769
84.3459
78.4009
72.9029
67.8162
63.1081
58.7485
54.7102
50.9679
47.4986
44.2812
41.296
38.5254
35.9529
33.5634
31.3431
29.2789
27.3603
25.5739
23.92
22.4327
39654.2
37679.5
36494.5
35775
35357.2
35055.7
34726.6
34293.2
33740.3
33067.4
32293.3
31447.3
30559.8
29657.1
28758.9
27879.7
27029
26210.5
25424.2
24668.1
23939.6
23236.1
22555.6
21896.6
21258
20638.6
20037.2
19452.6
18883.9
18330.4
17791.1
17265.3
16751.9
16249.9
15758.1
15275.4
14800.8
14333.3
13872
13415.9
12964
12515.2
12068.6
11623.1
11177.9
10732
10285.3
9837.62
9389.57
8942.02
8496.19
8053.53
7615.63
7184.19
6760.96
6347.79
5946.52
5558.89
5186.48
4830.52
4491.9
4171.12
3868.32
3583.39
3316.01
3065.72
2831.97
2614.14
2411.56
2223.5
2049.22
1887.91
1738.8
1601.1
1474.04
1356.89
1248.96
1149.56
1058.09
973.931
896.537
825.382
759.976
699.862
644.62
593.856
547.21
504.346
464.958
428.759
395.488
364.904
336.786
310.929
287.148
265.272
245.143
226.62
209.57
193.873
179.42
166.107
153.842
142.539
132.119
122.51
113.645
105.464
97.9111
90.935
84.4891
78.5307
73.0205
67.9227
63.2045
58.836
54.7895
51.0399
47.564
44.3405
41.3499
38.5744
35.9975
33.6039
31.3801
29.3126
27.3912
25.6022
23.9463
22.4573
9000.75
15401.8
21826.2
26956
30508.8
32606.7
33560.3
33676.6
33181
32373.6
31429.8
30442.6
29457.9
28497.8
27572.1
26687.2
25845.2
25042.3
24274.6
23538.6
22831.5
22150.9
21494.8
20862.2
20251.2
19659.9
19086.7
18530.3
17989.7
17464.1
16952.9
16455.3
15970.2
15496.4
15032.7
14578.2
14131.8
13692.8
13260.1
12832.9
12410.2
11991.1
11574.6
11159.8
10745.7
10331.4
9916.49
9500.75
9084.37
8667.91
8252.23
7838.43
7427.79
7021.75
6621.87
6229.85
5847.47
5476.48
5118.52
4774.96
4446.86
4134.91
3839.48
3560.65
3298.3
3052.13
2821.72
2606.6
2406.17
2219.83
2046.88
1886.61
1738.3
1601.2
1474.58
1357.76
1250.05
1150.8
1059.41
975.303
897.919
826.748
761.307
701.147
645.849
595.024
548.314
505.385
465.93
429.667
396.333
365.689
337.513
311.602
287.77
265.846
245.672
227.107
210.018
194.285
179.798
166.453
154.159
142.828
132.383
122.751
113.865
105.664
98.0929
91.1003
84.6394
78.6671
73.1444
68.0353
63.3069
58.929
54.8741
51.1167
47.6338
44.404
41.4078
38.6271
36.0455
33.6477
31.42
29.3491
27.4246
25.6328
23.9749
22.4841
160.425
570.338
1438.42
2861.72
4846.43
7284.29
9936.12
12547.9
14901.1
16796.2
18212.3
19207.2
19860.7
20248.4
20433.2
20449.1
20327.3
20114.8
19841.9
19528.3
19186.8
18826.1
18452
18068.7
17678.6
17283.4
16885.3
16486
16087.2
15690.5
15297.2
14907.4
14521.4
14139
13760
13384.3
13011.8
12642.2
12275
11909.9
11546.4
11184
10822.1
10460.1
10097.2
9732.76
9366.36
8997.81
8627.21
8254.94
7881.64
7508.2
7135.68
6765.3
6398.43
6036.66
5681.66
5335.18
4998.88
4674.28
4362.6
4064.77
3781.4
3512.81
3259.1
3020.2
2795.88
2585.82
2389.59
2206.7
2036.57
1878.61
1732.16
1596.57
1471.18
1355.32
1248.39
1149.75
1058.84
975.096
897.992
827.032
761.746
701.697
646.474
595.698
549.014
506.095
466.637
430.361
397.008
366.339
338.135
312.194
288.33
266.374
246.169
227.572
210.453
194.69
180.174
166.802
154.481
143.126
132.657
123.002
114.095
105.875
98.2861
91.2769
84.8006
78.8144
73.2788
68.1578
63.4186
59.0309
54.967
51.2015
47.7111
44.4745
41.4721
38.6858
36.0991
33.6966
31.4648
29.3901
27.4623
25.6675
24.0072
22.5145
2.25651
7.29075
25.3095
78.4522
209.722
484.289
973.287
1729.29
2765.12
4029.16
5426.33
6848.33
8202.95
9428.72
10495.4
11402.6
12152.8
12745.2
13195.8
13525.4
13753.3
13896.5
13965
13964
13910.4
13815.4
13687.1
13531.9
13354.6
13159.2
12948.8
12725.6
12491.7
12248.8
11998.4
11741.8
11479.8
11212.9
10941.7
10666.4
10387.4
10104.8
9818.56
9528.58
9234.5
8936.04
8633.03
8325.42
8013.36
7697.2
7377.53
7055.11
6730.86
6405.85
6081.32
5758.69
5439.54
5125.56
4818.44
4519.76
4230.93
3953.06
3687.02
3433.41
3192.56
2964.67
2749.72
2547.6
2358.07
2180.81
2015.4
1861.37
1718.19
1585.31
1462.15
1348.15
1242.73
1145.34
1055.44
972.517
896.078
825.652
760.794
701.085
646.132
595.567
549.046
506.252
466.888
430.68
397.374
366.737
338.552
312.619
288.757
266.795
246.581
227.972
210.837
195.057
180.522
167.131
154.79
143.415
132.927
123.253
114.328
106.091
98.485
91.4602
84.9693
78.9694
73.4212
68.2885
63.5385
59.1407
55.0676
51.2937
47.7956
44.5519
41.5429
38.7506
36.1585
33.7511
31.5148
29.436
27.5045
25.7064
24.0437
22.5488
0.788163
0.6705
0.748591
1.30339
3.18224
9.04288
25.9646
69.1802
164.88
347.975
653.812
1106.39
1708.53
2438.59
3255.63
4113.61
4970.02
5787.99
6542.96
7221.73
7819.29
8335.91
8777.09
9149.45
9451.96
9689.61
9869.21
9997.62
10081.1
10120.2
10121.7
10092.6
10037.7
9960.65
9864.17
9750.4
9621.06
9477.74
9321.85
9154.62
8977.19
8790.42
8594.84
8390.79
8178.45
7958.02
7729.67
7493.58
7250.02
6999.43
6742.41
6479.71
6212.17
5940.75
5666.57
5390.94
5115.31
4841.27
4570.46
4304.52
4044.95
3793.04
3549.88
3316.3
3092.93
2880.18
2678.32
2487.45
2307.56
2138.52
1980.09
1831.97
1693.79
1565.12
1445.5
1334.47
1231.53
1136.21
1048.04
966.548
891.293
821.844
757.791
698.743
644.331
594.207
548.045
505.541
466.411
430.389
397.231
366.71
338.615
312.752
288.941
267.018
246.83
228.238
211.113
195.336
180.8
167.404
155.056
143.671
133.172
123.486
114.548
106.297
98.6785
91.6409
85.1376
79.1258
73.5662
68.4228
63.6627
59.2555
55.1735
51.3913
47.8855
44.6347
41.6192
38.8209
36.2232
33.8106
31.5696
29.4865
27.5513
25.7497
24.0844
22.5871
0.769181
0.59888
0.474355
0.386796
0.337259
0.350999
0.514706
1.08347
2.83392
7.96326
21.737
54.4431
122.286
245.657
444.37
731.881
1110.74
1570.42
2089.81
2643.06
3205.56
3757.55
4285.7
4782.11
5239.36
5652.92
6020.95
6343.53
6622.21
6861.83
7062.46
7224.89
7351.82
7446.29
7511.2
7545.64
7553.88
7539.62
7505.43
7453.27
7384.62
7300.67
7202.51
7091.06
6967.05
6831.11
6683.7
6525.24
6356.15
6176.99
5988.46
5791.28
5586.26
5374.31
5156.45
4933.86
4707.86
4479.9
4251.54
4024.38
3799.96
3579.67
3364.76
3156.27
2955.06
2761.8
2576.98
2400.95
2233.94
2076.02
1927.17
1787.26
1656.11
1533.44
1418.93
1312.23
1212.98
1120.77
1035.22
955.941
882.542
814.65
751.899
693.939
640.434
591.065
545.531
503.546
464.845
429.177
396.31
366.026
338.124
312.417
288.733
266.911
246.803
228.273
211.197
195.457
180.947
167.569
155.233
143.855
133.358
123.671
114.73
106.474
98.8489
91.8039
85.2927
79.2726
73.7046
68.5529
63.7846
59.3695
55.2799
51.4904
47.9777
44.7204
41.6987
38.8946
36.2915
33.874
31.6283
29.5409
27.6018
25.7967
24.1288
22.6293
0.766845
0.597322
0.472263
0.37873
0.307896
0.253861
0.21328
0.185974
0.178527
0.215416
0.368882
0.85121
2.29122
6.36727
16.8463
40.6746
88.3368
172.639
305.818
496.018
744.713
1046.09
1388.78
1759
2142.86
2528.23
2905.45
3267.31
3608.75
3927.47
4221.12
4487.64
4726.04
4936.21
5118.79
5276.68
5409
5515.94
5598.78
5659.01
5696.5
5712.37
5709.46
5689.43
5653.4
5602.05
5535.99
5455.89
5362.39
5256.18
5137.97
5008.48
4868.47
4718.82
4560.47
4394.47
4221.97
4044.28
3862.81
3679.06
3494.52
3310.62
3128.67
2949.86
2775.23
2605.62
2441.76
2284.22
2133.44
1989.71
1853.22
1724.05
1602.2
1487.55
1379.95
1279.19
1185.03
1097.18
1015.35
939.233
868.526
802.918
742.101
685.777
633.653
585.449
540.895
499.735
461.725
426.637
394.254
364.374
336.809
311.382
287.929
266.297
246.347
227.946
210.973
195.318
180.875
167.551
155.256
143.91
133.437
123.767
114.838
106.59
98.9695
91.9263
85.4148
79.3929
73.822
68.6664
63.8937
59.4737
55.3791
51.5844
48.0665
44.8041
41.7774
38.9684
36.3606
33.9386
31.6887
29.5974
27.6548
25.8463
24.176
22.6743
0.765897
0.597014
0.472863
0.379898
0.309184
0.254593
0.211887
0.178096
0.151155
0.129752
0.113483
0.103722
0.106586
0.141284
0.263108
0.635118
1.73005
4.76455
12.3698
29.2401
62.2633
119.693
209.39
336.82
503.543
706.762
940.069
1195.06
1463.1
1736.81
2010.05
2277.67
2535.46
2780.14
3009.36
3222.34
3417.68
3594.16
3751.16
3888.62
4007.82
4108.93
4191.24
4255.14
4301.24
4328.29
4337.79
4331.23
4309.47
4273.1
4222.69
4158.96
4082.68
3994.67
3895.79
3786.9
3669.01
3543.24
3410.84
3273.15
3131.51
2987.29
2841.82
2696.32
2551.91
2409.57
2270.2
2134.52
2003.18
1876.65
1755.33
1639.49
1529.3
1424.84
1326.11
1233.06
1145.57
1063.49
986.639
914.811
847.786
785.335
727.22
673.204
623.05
576.525
533.4
493.454
456.474
422.259
390.616
361.361
334.323
309.341
286.262
264.945
245.257
227.076
210.287
194.783
180.467
167.246
155.036
143.758
133.34
123.715
114.821
106.601
99.0014
91.9744
85.4748
79.4614
73.8963
68.7444
63.9735
59.554
55.4588
51.6627
48.1428
44.8779
41.8484
39.0364
36.4255
34.0003
31.7473
29.6529
27.7074
25.8962
24.2241
22.7207
0.765451
0.596916
0.473342
0.380835
0.310385
0.255905
0.213191
0.179285
0.152068
0.129995
0.11193
0.0970396
0.0847366
0.0747083
0.0671047
0.06322
0.0676169
0.0939756
0.181606
0.446451
1.21944
3.33376
8.55527
19.995
42.2079
80.7105
140.903
226.764
339.845
478.991
640.715
820.02
1011.4
1209.64
1410.19
1609.49
1804.46
1992.37
2171.01
2338.69
2494.58
2637.94
2767.74
2883.29
2984.27
3071.74
3144.65
3202.33
3244.75
3271.08
3281.54
3277.56
3260
3229.48
3186.6
3132.12
3066.91
2991.89
2908.11
2816.67
2718.74
2615.58
2508.4
2398.37
2286.62
2174.18
2062.01
1950.96
1841.79
1735.14
1631.56
1531.49
1435.26
1343.13
1255.26
1171.74
1092.6
1017.81
947.316
881.016
818.789
760.492
705.968
655.051
607.567
563.338
522.186
483.933
448.405
415.432
384.85
356.502
330.238
305.914
283.396
262.555
243.272
225.433
208.934
193.675
179.564
166.516
154.45
143.293
132.975
123.433
114.608
106.444
98.8903
91.9006
85.4312
79.442
73.8961
68.7592
64
59.5895
55.5009
51.7096
48.1929
44.9299
41.9014
39.0896
36.4783
34.0523
31.7981
29.7023
27.7554
25.9425
24.2698
22.7655
0.765223
0.596882
0.473665
0.381484
0.311255
0.256895
0.214224
0.180304
0.153035
0.130886
0.112725
0.0977061
0.0851868
0.0746763
0.0657971
0.0582636
0.0518798
0.046577
0.0425527
0.040729
0.044134
0.0616887
0.118958
0.291057
0.791226
2.15537
5.5241
12.9272
27.3865
52.6652
92.6268
150.382
227.554
323.925
437.552
565.316
703.577
848.698
997.365
1146.68
1294.29
1438.2
1576.61
1707.99
1831.11
1945.44
2050.02
2143.83
2226.15
2297.16
2356.41
2402.88
2436.38
2456.16
2462.51
2456.6
2439.22
2410.96
2372.58
2324.99
2269.17
2206.16
2137.02
2062.8
1984.53
1903.2
1819.76
1735.1
1650.01
1565.25
1481.46
1399.2
1318.94
1241.08
1165.91
1093.66
1024.5
958.53
895.798
836.32
780.073
727.008
677.051
630.112
586.088
544.864
506.317
470.319
436.741
405.453
376.324
349.229
324.042
300.645
278.923
258.765
240.067
222.73
206.659
191.765
177.966
165.183
153.342
142.376
132.219
122.814
114.103
106.035
98.5622
91.6399
85.2268
79.2844
73.7772
68.6724
63.9395
59.5504
55.4793
51.7021
48.1966
44.9426
41.9211
39.1147
36.5074
34.0843
31.8322
29.7377
27.7918
25.9794
24.3079
22.8041
0.765098
0.596872
0.473876
0.381923
0.31187
0.257622
0.215007
0.181101
0.153813
0.131625
0.113413
0.0983356
0.0857553
0.075182
0.0662357
0.0586192
0.0520975
0.0464842
0.0416312
0.0374248
0.0337896
0.0307152
0.0283415
0.0272319
0.0291906
0.0395143
0.0733728
0.175253
0.472215
1.28868
3.33181
7.89903
16.9945
33.2258
59.4197
98.0449
150.656
217.561
297.796
389.394
489.855
596.592
707.181
819.445
931.453
1041.63
1148.5
1250.68
1346.93
1436.44
1518.38
1591.74
1655.74
1710.48
1755.45
1789.81
1813.37
1825.4
1826.58
1817.93
1800.25
1774.22
1740.68
1700.53
1654.67
1603.97
1549.28
1491.43
1431.22
1369.38
1306.61
1243.53
1180.69
1118.59
1057.62
998.131
940.393
884.617
830.965
779.551
730.448
683.696
639.306
597.266
557.544
520.09
484.843
451.728
420.665
391.568
364.346
338.908
315.161
293.011
272.37
253.148
235.259
218.619
203.151
188.776
175.424
163.025
151.514
140.83
130.915
121.716
113.182
105.264
97.9197
91.1062
84.7853
78.9211
73.4801
68.431
63.7452
59.3957
55.3577
51.6082
48.126
44.8911
41.8855
39.0922
36.4957
34.0814
31.8364
29.7476
27.8064
25.9978
24.3304
22.8295
0.765027
0.596869
0.474015
0.382219
0.312299
0.258149
0.215593
0.181713
0.154427
0.132223
0.113982
0.098868
0.0862468
0.0756309
0.066642
0.0589839
0.0524221
0.0467697
0.0418765
0.037621
0.0339042
0.0306451
0.0277782
0.0252519
0.0230324
0.0211191
0.0195908
0.0187538
0.0195863
0.0249752
0.0432003
0.0985319
0.261371
0.717227
1.887
4.57783
10.0969
20.236
37.0626
62.5347
98.0743
144.264
200.759
266.407
339.518
418.218
500.67
585.162
670.108
754.115
835.906
914.238
987.996
1056.44
1118.8
1174.21
1221.99
1262.31
1294.47
1317.97
1332.81
1338.42
1335.91
1326.09
1309.7
1287.34
1259.74
1227.6
1191.64
1152.54
1110.95
1067.49
1022.74
977.22
931.398
885.686
840.435
795.94
752.448
710.16
669.231
629.782
591.899
555.645
521.055
488.145
456.911
427.336
399.39
373.034
348.218
324.888
302.987
282.453
263.222
245.231
228.414
212.709
198.053
184.385
171.645
159.777
148.727
138.441
128.871
119.969
111.691
103.994
96.8392
90.189
84.0084
78.2645
72.9266
67.9658
63.3554
59.0704
55.0875
51.3849
47.9425
44.7415
41.7646
38.9956
36.4195
34.0225
31.792
29.7155
27.7848
25.9849
24.3259
22.8315
0.764984
0.596871
0.474106
0.382419
0.312599
0.258527
0.216026
0.182178
0.154906
0.132699
0.114444
0.0993096
0.0866623
0.0760173
0.0669981
0.0593093
0.0527175
0.0470363
0.0421157
0.0378344
0.0340933
0.030811
0.0279205
0.0253659
0.0231007
0.0210861
0.0192898
0.0176857
0.0162567
0.0150011
0.0139573
0.0132759
0.0134446
0.0159238
0.024926
0.0527835
0.135848
0.373672
1.00391
2.50839
5.71335
11.8214
22.3174
38.7346
62.3401
93.8614
133.349
180.194
233.274
291.184
352.455
415.665
479.487
542.756
604.398
663.369
718.722
769.837
815.985
856.446
890.748
919.216
941.164
956.446
965.157
967.103
963.195
954.082
940.319
922.417
900.932
876.423
849.427
820.452
789.969
758.408
726.156
693.56
660.921
628.499
596.512
565.143
534.543
504.834
476.114
448.455
421.907
396.507
372.272
349.209
327.311
306.563
286.942
268.419
250.96
234.528
219.081
204.579
190.977
178.233
166.302
155.141
144.707
134.96
125.859
117.366
109.444
102.056
95.1697
88.7524
82.7736
77.2046
72.0181
67.1882
62.691
58.5038
54.6051
50.9753
47.5955
44.4484
41.5179
38.7887
36.2468
33.8791
31.6738
29.6188
27.7066
25.9227
24.2784
22.7956
0.764958
0.596873
0.474168
0.382555
0.312809
0.258799
0.216345
0.182529
0.155274
0.133073
0.114815
0.09967
0.0870075
0.0763438
0.0673038
0.0595933
0.0529794
0.0472763
0.0423346
0.038033
0.0342726
0.0309723
0.0280648
0.0254945
0.0232145
0.0211859
0.0193756
0.0177555
0.0163019
0.0149944
0.0138161
0.0127526
0.0117939
0.0109374
0.0101989
0.00964627
0.00950442
0.0104599
0.0145146
0.027513
0.0668635
0.182182
0.49904
1.28953
3.05357
6.57182
12.8835
23.159
38.4819
59.6123
86.8198
119.836
157.922
200.036
245.013
291.687
338.963
385.878
431.524
475.021
515.594
552.789
586.014
614.799
638.933
658.66
673.529
683.515
688.696
689.063
685.281
677.853
667.215
653.762
637.915
620.081
600.641
579.95
558.324
536.05
513.379
490.536
467.714
445.082
422.781
400.928
379.621
358.938
338.942
319.678
301.18
283.468
266.554
250.44
235.123
220.592
206.83
193.819
181.537
169.957
159.053
148.798
139.162
130.116
121.631
113.678
106.23
99.2576
92.735
86.6359
80.9354
75.6093
70.6349
65.9901
61.6542
57.6074
53.8312
50.3078
47.0206
43.9541
41.0934
38.4249
35.9357
33.6136
31.4478
29.4271
27.5448
25.7868
24.166
22.7022
0.764942
0.596875
0.474211
0.38265
0.312957
0.258995
0.216579
0.182792
0.155555
0.133364
0.115109
0.0999602
0.0872898
0.076615
0.0675616
0.0598363
0.0532067
0.0474877
0.04253
0.0382128
0.0344374
0.0311227
0.0282015
0.0256183
0.0233262
0.0212863
0.0194654
0.0178355
0.0163727
0.0150567
0.0138698
0.0127971
0.0118255
0.0109436
0.0101419
0.009412
0.0087477
0.00814605
0.00761227
0.00717406
0.00692685
0.00716951
0.00878833
0.0143705
0.0316417
0.0834273
0.231302
0.61925
1.53364
3.45809
7.08836
13.2751
22.8865
36.6245
54.8642
77.5696
104.305
134.337
166.76
200.615
234.979
269.06
302.126
333.511
362.669
389.271
412.906
433.27
450.273
464.048
474.319
481.099
484.476
484.467
481.568
476.157
468.565
459.076
447.981
435.562
422.078
407.765
392.836
377.478
361.86
346.129
330.412
314.823
299.455
284.386
269.681
255.392
241.561
228.219
215.389
203.085
191.317
180.086
169.391
159.225
149.58
140.442
131.798
123.632
115.926
108.663
101.823
95.3894
89.3415
83.6609
78.3291
73.3276
68.6386
64.2448
60.1294
56.2762
52.6698
49.2955
46.1389
43.1868
40.4264
37.8456
35.4331
33.1781
31.071
29.1016
27.2643
25.5456
23.9601
22.5252
0.764931
0.596878
0.474241
0.382716
0.313061
0.259135
0.216751
0.182987
0.155768
0.133588
0.115339
0.100191
0.0875177
0.076837
0.0677756
0.0600406
0.0534004
0.04767
0.0427008
0.038372
0.0345851
0.0312592
0.0283273
0.0257336
0.0234318
0.0213826
0.0195529
0.0179148
0.0164443
0.0151211
0.0139276
0.0128486
0.0118712
0.0109839
0.0101769
0.00944151
0.00877029
0.0081566
0.00759464
0.00707944
0.0066069
0.00617444
0.00578288
0.00544216
0.0051894
0.00514487
0.00567479
0.00785703
0.0149002
0.0365031
0.100443
0.276993
0.718174
1.7029
3.66627
7.18652
12.9125
21.4402
33.1752
48.2306
66.395
87.1827
109.921
133.858
158.26
182.501
206.027
228.356
249.11
268.039
284.851
299.333
311.421
321.232
328.585
333.502
336.097
336.326
334.551
331.048
326.051
319.761
312.371
304.07
295.03
285.411
275.356
264.992
254.431
243.773
233.105
222.501
212.026
201.734
191.67
181.87
172.363
163.171
154.312
145.797
137.633
129.823
122.368
115.264
108.507
102.091
96.0058
90.2432
84.7924
79.6423
74.7814
70.1976
65.8789
61.8129
57.9877
54.3912
51.0116
47.8377
44.8581
42.0622
39.4395
36.9802
34.6748
32.5141
30.4901
28.5939
26.821
25.1593
23.6243
22.2313
0.764925
0.59688
0.474262
0.382762
0.313136
0.259237
0.216876
0.183133
0.155929
0.13376
0.115517
0.100373
0.0876993
0.0770164
0.0679506
0.0602098
0.0535627
0.0478247
0.0428473
0.0385101
0.0347147
0.0313803
0.0284401
0.0258384
0.0235288
0.0214721
0.0196353
0.0179905
0.0165136
0.0151844
0.0139852
0.0129009
0.0119185
0.0110266
0.0102152
0.00947584
0.00880086
0.00818364
0.00761833
0.00709978
0.00662341
0.00618519
0.00578153
0.00540929
0.00506578
0.00474895
0.00445816
0.00419629
0.00397647
0.00384347
0.0039382
0.00468258
0.0073259
0.0156507
0.0409597
0.114062
0.307709
0.768009
1.74404
3.59727
6.77314
11.7299
18.8389
28.2904
40.0413
53.8245
69.1994
85.6277
102.559
119.503
136.029
151.776
166.465
179.914
191.918
202.324
211.052
218.245
223.763
227.614
229.872
230.555
229.82
227.873
224.88
220.988
216.322
211.007
205.16
198.888
192.289
185.45
178.448
171.35
164.216
157.099
150.042
143.084
136.257
129.587