/*--------------------------------*- C++ -*----------------------------------*\
| =========                 |                                                 |
| \\      /  F ield         | OpenFOAM: The Open Source CFD Toolbox           |
|  \\    /   O peration     | Version:  1.7.x                                 |
|   \\  /    A nd           | Web:      www.OpenFOAM.com                      |
|    \\/     M anipulation  |                                                 |
\*---------------------------------------------------------------------------*/
FoamFile
{
    version     2.0;
    format      ascii;
    class       volScalarField;
    location    "2200";
    object      T;
}
// * * * * * * * * * * * * * * * * * * * * * * * * * * * * * * * * * * * * * //

dimensions      [0 0 0 1 0 0 0];

internalField   nonuniform List<scalar> 
5460
(
280
279.999
279.999
279.999
279.999
279.999
279.999
279.999
279.999
279.999
280
280
280
280
280
280
280
280.001
280.001
280.002
280.003
280.004
280.006
280.009
280.012
280.017
280.024
280.033
280.045
280.061
280.082
280.11
280.146
280.193
280.253
280.328
280.423
280.539
280.678
280.843
281.034
281.25
281.49
281.751
282.032
282.329
282.639
282.959
283.287
283.619
283.954
284.289
284.623
284.955
285.283
285.607
285.925
286.237
286.542
286.841
287.132
287.416
287.692
287.962
288.224
288.479
288.726
288.966
289.199
289.425
289.645
289.857
290.063
290.263
290.456
290.644
290.826
291.003
291.174
291.34
291.501
291.657
291.809
291.956
292.099
292.237
292.372
292.503
292.631
292.756
292.879
293.001
293.124
293.248
293.376
293.508
293.646
293.79
293.942
294.1
294.264
294.433
294.603
294.775
294.944
295.111
295.272
295.428
295.577
295.719
295.853
295.98
296.1
296.212
296.318
296.417
296.51
296.597
296.679
296.756
296.828
296.895
296.959
297.018
297.074
297.127
297.176
297.222
297.266
297.304
280
279.999
279.999
279.999
279.999
279.999
279.999
279.999
279.999
280
280
280
280
280
280
280
280.001
280.001
280.002
280.003
280.005
280.007
280.009
280.013
280.018
280.025
280.034
280.046
280.062
280.083
280.11
280.145
280.19
280.246
280.316
280.403
280.508
280.635
280.783
280.955
281.151
281.369
281.609
281.869
282.147
282.439
282.744
283.058
283.379
283.706
284.034
284.364
284.692
285.019
285.342
285.661
285.975
286.283
286.585
286.88
287.168
287.449
287.723
287.99
288.25
288.503
288.748
288.987
289.218
289.443
289.661
289.872
290.077
290.276
290.469
290.656
290.837
291.013
291.183
291.349
291.509
291.665
291.816
291.962
292.105
292.243
292.377
292.508
292.635
292.76
292.883
293.005
293.128
293.252
293.379
293.51
293.648
293.792
293.943
294.101
294.265
294.433
294.603
294.774
294.943
295.109
295.27
295.426
295.575
295.717
295.851
295.978
296.097
296.21
296.315
296.414
296.508
296.595
296.677
296.753
296.825
296.893
296.956
297.016
297.072
297.124
297.174
297.22
297.264
297.302
280
279.999
279.999
279.999
279.999
279.999
279.999
279.999
280
280
280
280
280
280
280.001
280.001
280.002
280.003
280.005
280.007
280.01
280.014
280.019
280.026
280.035
280.048
280.063
280.084
280.11
280.143
280.185
280.237
280.301
280.378
280.471
280.58
280.707
280.853
281.017
281.202
281.405
281.627
281.866
282.121
282.391
282.674
282.967
283.269
283.578
283.891
284.207
284.524
284.841
285.157
285.47
285.779
286.084
286.383
286.677
286.965
287.247
287.522
287.79
288.052
288.307
288.556
288.797
289.032
289.26
289.482
289.697
289.906
290.108
290.305
290.496
290.681
290.86
291.034
291.203
291.368
291.527
291.681
291.831
291.977
292.118
292.256
292.389
292.519
292.646
292.77
292.892
293.014
293.135
293.259
293.385
293.516
293.653
293.796
293.946
294.103
294.266
294.433
294.602
294.772
294.941
295.106
295.267
295.422
295.57
295.712
295.846
295.972
296.092
296.204
296.31
296.409
296.502
296.589
296.671
296.748
296.82
296.888
296.951
297.011
297.067
297.12
297.169
297.216
297.259
297.298
280
279.999
279.999
279.999
279.999
279.999
279.999
280
280
280
280
280
280.001
280.002
280.003
280.004
280.006
280.008
280.012
280.017
280.023
280.032
280.043
280.057
280.076
280.099
280.129
280.166
280.211
280.267
280.334
280.414
280.507
280.615
280.737
280.874
281.027
281.194
281.376
281.571
281.781
282.004
282.24
282.487
282.746
283.014
283.292
283.576
283.867
284.162
284.46
284.76
285.06
285.36
285.658
285.953
286.244
286.532
286.815
287.092
287.364
287.63
287.891
288.145
288.393
288.635
288.871
289.1
289.324
289.541
289.751
289.956
290.155
290.348
290.536
290.718
290.895
291.067
291.234
291.396
291.554
291.706
291.855
291.999
292.139
292.275
292.407
292.536
292.662
292.785
292.906
293.027
293.147
293.269
293.395
293.525
293.66
293.802
293.951
294.107
294.268
294.433
294.601
294.77
294.938
295.102
295.262
295.416
295.564
295.705
295.839
295.965
296.084
296.196
296.302
296.401
296.494
296.581
296.663
296.74
296.813
296.881
296.944
297.004
297.06
297.113
297.163
297.209
297.253
297.292
280
279.999
279.999
279.999
279.999
279.999
280
280
280
280.001
280.001
280.002
280.003
280.005
280.008
280.011
280.016
280.022
280.031
280.042
280.057
280.075
280.099
280.129
280.166
280.211
280.266
280.331
280.408
280.497
280.599
280.714
280.842
280.982
281.135
281.298
281.472
281.656
281.85
282.052
282.263
282.483
282.711
282.947
283.191
283.442
283.7
283.964
284.233
284.506
284.782
285.061
285.341
285.621
285.9
286.178
286.453
286.725
286.993
287.257
287.517
287.772
288.022
288.266
288.506
288.739
288.968
289.19
289.407
289.618
289.823
290.023
290.217
290.406
290.59
290.769
290.942
291.111
291.275
291.434
291.589
291.74
291.886
292.028
292.166
292.3
292.431
292.558
292.683
292.804
292.924
293.044
293.163
293.284
293.408
293.536
293.67
293.811
293.958
294.112
294.271
294.435
294.601
294.768
294.934
295.097
295.256
295.409
295.556
295.696
295.829
295.955
296.074
296.186
296.292
296.391
296.484
296.571
296.653
296.73
296.803
296.871
296.935
296.995
297.051
297.104
297.154
297.201
297.245
297.284
280
279.999
279.999
279.999
280
280
280
280.001
280.002
280.003
280.005
280.007
280.011
280.016
280.023
280.032
280.045
280.061
280.081
280.107
280.14
280.18
280.229
280.287
280.357
280.437
280.53
280.635
280.752
280.881
281.02
281.169
281.328
281.495
281.669
281.85
282.037
282.229
282.426
282.628
282.834
283.045
283.261
283.482
283.708
283.939
284.175
284.416
284.661
284.91
285.162
285.417
285.674
285.932
286.19
286.447
286.703
286.958
287.209
287.458
287.703
287.944
288.182
288.415
288.643
288.867
289.086
289.3
289.509
289.713
289.912
290.105
290.294
290.478
290.656
290.83
291
291.165
291.325
291.481
291.633
291.781
291.924
292.064
292.2
292.332
292.461
292.586
292.709
292.829
292.947
293.065
293.183
293.302
293.424
293.551
293.683
293.821
293.966
294.118
294.275
294.436
294.6
294.765
294.929
295.091
295.248
295.4
295.546
295.685
295.818
295.943
296.062
296.174
296.279
296.378
296.471
296.559
296.641
296.718
296.791
296.859
296.923
296.983
297.04
297.093
297.144
297.191
297.235
297.274
280
279.999
280
280
280
280.001
280.002
280.004
280.007
280.011
280.016
280.024
280.035
280.05
280.069
280.093
280.124
280.162
280.209
280.266
280.333
280.412
280.503
280.606
280.721
280.847
280.984
281.13
281.285
281.447
281.615
281.788
281.966
282.147
282.331
282.517
282.706
282.896
283.088
283.281
283.476
283.674
283.873
284.075
284.281
284.49
284.702
284.918
285.138
285.362
285.588
285.818
286.05
286.284
286.519
286.755
286.99
287.225
287.458
287.689
287.918
288.144
288.368
288.588
288.804
289.016
289.225
289.429
289.629
289.824
290.015
290.202
290.384
290.562
290.735
290.904
291.068
291.229
291.385
291.537
291.685
291.83
291.97
292.107
292.24
292.37
292.496
292.619
292.74
292.858
292.975
293.09
293.206
293.324
293.444
293.568
293.698
293.834
293.977
294.125
294.28
294.438
294.6
294.763
294.924
295.084
295.239
295.39
295.535
295.673
295.804
295.929
296.047
296.159
296.264
296.363
296.456
296.544
296.626
296.703
296.776
296.845
296.909
296.97
297.027
297.081
297.131
297.179
297.223
297.263
280
280
280
280.001
280.003
280.006
280.01
280.017
280.026
280.04
280.058
280.082
280.113
280.152
280.201
280.261
280.332
280.415
280.512
280.621
280.742
280.874
281.018
281.17
281.33
281.496
281.667
281.842
282.019
282.198
282.379
282.56
282.741
282.921
283.102
283.281
283.461
283.639
283.817
283.995
284.174
284.352
284.532
284.712
284.895
285.08
285.268
285.458
285.652
285.85
286.051
286.254
286.461
286.67
286.882
287.094
287.308
287.521
287.735
287.948
288.159
288.369
288.577
288.782
288.985
289.185
289.382
289.576
289.765
289.952
290.134
290.313
290.487
290.658
290.825
290.988
291.147
291.302
291.454
291.601
291.745
291.886
292.023
292.156
292.286
292.413
292.537
292.658
292.776
292.892
293.006
293.12
293.234
293.349
293.467
293.589
293.716
293.849
293.988
294.134
294.286
294.441
294.6
294.76
294.919
295.076
295.229
295.378
295.521
295.658
295.789
295.913
296.031
296.142
296.247
296.346
296.439
296.526
296.609
296.686
296.76
296.828
296.893
296.954
297.011
297.065
297.116
297.164
297.209
297.249
280
280.001
280.004
280.008
280.016
280.027
280.045
280.069
280.102
280.146
280.201
280.269
280.351
280.448
280.56
280.686
280.825
280.976
281.137
281.306
281.481
281.661
281.843
282.027
282.211
282.395
282.577
282.758
282.936
283.112
283.286
283.458
283.627
283.793
283.958
284.121
284.281
284.441
284.599
284.756
284.912
285.068
285.224
285.381
285.539
285.699
285.861
286.026
286.194
286.365
286.54
286.718
286.899
287.083
287.27
287.459
287.65
287.843
288.036
288.229
288.422
288.615
288.806
288.997
289.185
289.372
289.556
289.738
289.917
290.093
290.266
290.436
290.602
290.766
290.925
291.082
291.235
291.384
291.531
291.674
291.813
291.949
292.082
292.212
292.339
292.462
292.583
292.701
292.816
292.93
293.042
293.153
293.264
293.377
293.493
293.612
293.736
293.866
294.002
294.144
294.292
294.444
294.6
294.756
294.913
295.067
295.218
295.365
295.506
295.642
295.772
295.895
296.012
296.123
296.227
296.326
296.419
296.507
296.589
296.667
296.741
296.81
296.875
296.936
296.994
297.048
297.1
297.148
297.194
297.234
280.002
280.01
280.024
280.048
280.085
280.136
280.204
280.291
280.398
280.525
280.67
280.833
281.011
281.2
281.397
281.599
281.803
282.007
282.209
282.409
282.604
282.795
282.981
283.163
283.339
283.511
283.678
283.84
283.999
284.153
284.304
284.452
284.596
284.738
284.877
285.014
285.15
285.283
285.416
285.547
285.678
285.809
285.94
286.071
286.204
286.338
286.474
286.613
286.755
286.9
287.049
287.201
287.357
287.516
287.679
287.845
288.013
288.184
288.356
288.529
288.704
288.879
289.053
289.228
289.401
289.574
289.745
289.915
290.082
290.247
290.41
290.571
290.729
290.884
291.036
291.185
291.332
291.475
291.616
291.753
291.888
292.019
292.148
292.274
292.397
292.517
292.634
292.749
292.862
292.972
293.082
293.19
293.299
293.409
293.522
293.638
293.759
293.885
294.018
294.156
294.3
294.448
294.6
294.753
294.906
295.057
295.206
295.35
295.49
295.624
295.753
295.875
295.991
296.101
296.205
296.304
296.397
296.485
296.568
296.646
296.719
296.789
296.854
296.916
296.974
297.029
297.081
297.13
297.176
297.217
280.028
280.089
280.184
280.315
280.482
280.682
280.911
281.161
281.424
281.692
281.959
282.22
282.471
282.71
282.937
283.151
283.354
283.545
283.727
283.899
284.064
284.221
284.371
284.515
284.653
284.787
284.916
285.041
285.163
285.281
285.397
285.51
285.621
285.73
285.837
285.943
286.048
286.152
286.256
286.359
286.462
286.565
286.669
286.774
286.88
286.988
287.099
287.212
287.328
287.447
287.571
287.698
287.829
287.964
288.103
288.246
288.392
288.54
288.692
288.846
289.001
289.158
289.315
289.473
289.632
289.79
289.947
290.104
290.259
290.413
290.566
290.716
290.865
291.012
291.156
291.298
291.437
291.574
291.708
291.84
291.969
292.096
292.22
292.341
292.46
292.577
292.69
292.802
292.911
293.019
293.125
293.231
293.337
293.444
293.553
293.666
293.784
293.906
294.035
294.169
294.309
294.453
294.6
294.749
294.899
295.047
295.193
295.335
295.472
295.605
295.732
295.853
295.968
296.078
296.182
296.28
296.373
296.461
296.544
296.622
296.696
296.766
296.832
296.894
296.953
297.008
297.06
297.11
297.156
297.198
280.493
281.038
281.598
282.144
282.65
283.1
283.486
283.812
284.086
284.32
284.521
284.698
284.855
284.996
285.126
285.245
285.357
285.462
285.562
285.657
285.748
285.836
285.921
286.003
286.083
286.161
286.238
286.313
286.388
286.461
286.533
286.605
286.677
286.748
286.819
286.891
286.962
287.034
287.107
287.18
287.254
287.329
287.405
287.483
287.562
287.644
287.729
287.816
287.907
288.002
288.1
288.203
288.31
288.422
288.538
288.658
288.781
288.909
289.04
289.174
289.31
289.449
289.589
289.731
289.874
290.017
290.161
290.304
290.447
290.59
290.731
290.872
291.011
291.148
291.284
291.418
291.55
291.68
291.808
291.934
292.057
292.179
292.298
292.414
292.529
292.641
292.751
292.859
292.965
293.069
293.173
293.275
293.378
293.482
293.588
293.697
293.811
293.929
294.054
294.183
294.319
294.458
294.601
294.746
294.891
295.036
295.179
295.318
295.453
295.584
295.709
295.829
295.943
296.052
296.156
296.254
296.346
296.434
296.517
296.596
296.67
296.741
296.807
296.87
296.929
296.985
297.038
297.088
297.135
297.177
294.813
293.295
292
290.963
290.149
289.518
289.037
288.678
288.423
288.235
288.093
287.981
287.892
287.821
287.764
287.719
287.684
287.658
287.639
287.627
287.62
287.617
287.618
287.622
287.631
287.642
287.656
287.673
287.692
287.713
287.737
287.762
287.79
287.819
287.851
287.884
287.92
287.957
287.996
288.037
288.08
288.125
288.172
288.222
288.274
288.329
288.387
288.449
288.514
288.584
288.657
288.735
288.818
288.906
288.998
289.095
289.197
289.303
289.413
289.527
289.643
289.763
289.886
290.01
290.137
290.265
290.393
290.523
290.653
290.783
290.913
291.042
291.171
291.299
291.426
291.551
291.675
291.798
291.919
292.038
292.155
292.271
292.384
292.496
292.606
292.713
292.819
292.923
293.025
293.126
293.226
293.325
293.424
293.525
293.627
293.732
293.842
293.956
294.075
294.2
294.33
294.464
294.602
294.743
294.884
295.024
295.163
295.299
295.432
295.56
295.684
295.802
295.916
296.024
296.127
296.224
296.317
296.405
296.488
296.567
296.642
296.712
296.779
296.842
296.902
296.959
297.012
297.063
297.111
297.153
297.85
297.518
297.005
296.38
295.693
294.988
294.301
293.65
293.036
292.489
292.012
291.599
291.243
290.935
290.668
290.438
290.242
290.07
289.92
289.786
289.668
289.562
289.469
289.387
289.315
289.252
289.196
289.148
289.106
289.07
289.039
289.014
288.993
288.977
288.965
288.957
288.953
288.953
288.956
288.962
288.972
288.985
289.001
289.021
289.044
289.07
289.101
289.135
289.174
289.217
289.264
289.317
289.374
289.437
289.505
289.578
289.657
289.74
289.827
289.92
290.016
290.116
290.219
290.325
290.434
290.545
290.658
290.772
290.888
291.004
291.121
291.238
291.355
291.472
291.589
291.705
291.82
291.934
292.047
292.158
292.269
292.378
292.485
292.591
292.695
292.798
292.899
292.998
293.096
293.193
293.288
293.384
293.479
293.575
293.673
293.774
293.879
293.988
294.102
294.221
294.345
294.473
294.606
294.74
294.876
295.012
295.147
295.28
295.409
295.535
295.656
295.773
295.885
295.992
296.094
296.191
296.284
296.372
296.455
296.534
296.609
296.68
296.747
296.811
296.872
296.929
296.983
297.034
297.083
297.126
297.997
297.985
297.952
297.879
297.739
297.511
297.19
296.789
296.329
295.838
295.341
294.858
294.401
293.976
293.584
293.221
292.884
292.577
292.297
292.044
291.814
291.606
291.418
291.249
291.096
290.957
290.83
290.714
290.609
290.513
290.426
290.348
290.277
290.213
290.156
290.104
290.059
290.019
289.984
289.954
289.929
289.908
289.892
289.88
289.872
289.869
289.87
289.876
289.887
289.903
289.924
289.95
289.981
290.018
290.061
290.109
290.163
290.222
290.287
290.356
290.431
290.509
290.592
290.678
290.768
290.861
290.957
291.054
291.154
291.256
291.358
291.462
291.567
291.672
291.777
291.882
291.987
292.091
292.195
292.298
292.401
292.502
292.602
292.702
292.8
292.896
292.992
293.086
293.179
293.271
293.362
293.452
293.543
293.635
293.728
293.824
293.923
294.026
294.134
294.247
294.365
294.487
294.613
294.741
294.871
295.002
295.132
295.26
295.386
295.509
295.627
295.742
295.852
295.958
296.059
296.155
296.247
296.335
296.418
296.498
296.573
296.644
296.712
296.776
296.837
296.895
296.95
297.002
297.051
297.095
298
298
297.999
297.997
297.992
297.978
297.948
297.887
297.776
297.602
297.36
297.059
296.715
296.346
295.968
295.592
295.225
294.873
294.539
294.224
293.929
293.652
293.394
293.15
292.922
292.711
292.516
292.335
292.167
292.013
291.872
291.742
291.621
291.509
291.406
291.311
291.224
291.144
291.071
291.004
290.943
290.888
290.838
290.794
290.755
290.722
290.694
290.671
290.653
290.641
290.634
290.633
290.638
290.649
290.665
290.688
290.717
290.752
290.792
290.838
290.889
290.946
291.007
291.073
291.142
291.216
291.293
291.373
291.456
291.541
291.628
291.717
291.808
291.899
291.992
292.085
292.179
292.272
292.366
292.46
292.553
292.646
292.739
292.83
292.921
293.011
293.1
293.188
293.275
293.362
293.448
293.533
293.619
293.706
293.793
293.884
293.977
294.074
294.175
294.281
294.392
294.507
294.625
294.747
294.87
294.995
295.119
295.243
295.364
295.483
295.599
295.711
295.819
295.923
296.022
296.118
296.209
296.296
296.379
296.459
296.534
296.606
296.674
296.739
296.8
296.859
296.914
296.967
297.017
297.061
298
298
298
298.001
298
298
297.999
297.997
297.992
297.981
297.955
297.903
297.813
297.674
297.485
297.25
296.98
296.688
296.384
296.078
295.775
295.481
295.196
294.922
294.66
294.41
294.173
293.949
293.738
293.537
293.347
293.168
293
292.843
292.696
292.559
292.432
292.313
292.203
292.099
292.003
291.914
291.832
291.756
291.686
291.622
291.564
291.512
291.466
291.426
291.392
291.364
291.342
291.326
291.317
291.314
291.317
291.327
291.343
291.365
291.393
291.426
291.465
291.509
291.558
291.611
291.668
291.729
291.794
291.861
291.932
292.005
292.08
292.158
292.236
292.316
292.398
292.48
292.562
292.645
292.729
292.812
292.896
292.979
293.062
293.144
293.226
293.307
293.388
293.468
293.548
293.628
293.708
293.789
293.871
293.955
294.042
294.132
294.226
294.324
294.427
294.534
294.645
294.759
294.876
294.994
295.112
295.229
295.346
295.46
295.572
295.681
295.786
295.888
295.986
296.08
296.17
296.257
296.339
296.418
296.493
296.565
296.634
296.699
296.761
296.82
296.876
296.929
296.98
297.025
298
298
298
298
298
298.001
298.001
298.001
298
298
298
297.998
297.994
297.984
297.962
297.919
297.846
297.734
297.582
297.393
297.174
296.936
296.687
296.431
296.176
295.924
295.677
295.437
295.205
294.981
294.766
294.56
294.363
294.176
293.997
293.826
293.663
293.509
293.363
293.225
293.096
292.975
292.862
292.755
292.655
292.562
292.475
292.395
292.321
292.254
292.192
292.138
292.089
292.047
292.012
291.984
291.962
291.946
291.938
291.935
291.939
291.949
291.965
291.987
292.014
292.046
292.083
292.124
292.17
292.219
292.272
292.328
292.387
292.449
292.513
292.579
292.646
292.715
292.786
292.857
292.93
293.002
293.076
293.15
293.223
293.297
293.371
293.445
293.518
293.592
293.665
293.738
293.812
293.886
293.962
294.039
294.119
294.202
294.289
294.379
294.474
294.573
294.675
294.781
294.889
295
295.111
295.222
295.333
295.442
295.549
295.654
295.756
295.855
295.951
296.043
296.132
296.217
296.299
296.377
296.452
296.524
296.592
296.658
296.72
296.779
296.836
296.89
296.941
296.987
298
298
298
298
298
298
298
298.001
298.001
298.001
298.001
298.001
298
298
298
297.998
297.995
297.987
297.969
297.934
297.875
297.784
297.661
297.507
297.327
297.13
296.92
296.703
296.485
296.266
296.05
295.838
295.63
295.429
295.234
295.045
294.863
294.688
294.52
294.358
294.203
294.055
293.913
293.777
293.649
293.529
293.415
293.309
293.209
293.115
293.028
292.948
292.874
292.807
292.747
292.693
292.647
292.607
292.574
292.547
292.528
292.514
292.507
292.506
292.511
292.522
292.538
292.559
292.585
292.615
292.649
292.687
292.729
292.774
292.822
292.873
292.926
292.981
293.039
293.097
293.158
293.219
293.281
293.345
293.409
293.473
293.538
293.603
293.669
293.734
293.8
293.866
293.933
294
294.069
294.139
294.212
294.287
294.365
294.447
294.533
294.623
294.717
294.814
294.914
295.016
295.119
295.223
295.328
295.431
295.533
295.633
295.731
295.827
295.919
296.009
296.096
296.18
296.26
296.337
296.412
296.483
296.551
296.616
296.679
296.738
296.795
296.85
296.902
296.948
298
298
298
298
298
298
298
298
298
298
298
298.001
298.001
298.001
298.001
298.001
298
298
298
297.999
297.996
297.99
297.975
297.948
297.901
297.829
297.729
297.602
297.453
297.287
297.108
296.922
296.732
296.541
296.35
296.161
295.975
295.792
295.614
295.441
295.272
295.109
294.951
294.798
294.651
294.509
294.373
294.242
294.117
294
293.889
293.785
293.688
293.597
293.513
293.436
293.366
293.303
293.246
293.197
293.154
293.118
293.088
293.065
293.048
293.037
293.032
293.032
293.038
293.048
293.064
293.083
293.107
293.135
293.167
293.201
293.239
293.279
293.322
293.368
293.415
293.464
293.514
293.566
293.619
293.674
293.729
293.785
293.841
293.898
293.956
294.014
294.073
294.132
294.193
294.256
294.321
294.388
294.458
294.531
294.608
294.689
294.773
294.861
294.951
295.045
295.14
295.236
295.333
295.429
295.525
295.62
295.713
295.805
295.894
295.98
296.064
296.146
296.224
296.3
296.373
296.444
296.511
296.576
296.638
296.698
296.755
296.809
296.861
296.908
298
298
298
298
298
298
298
298
298
298
298
298
298
298
298
298
298.001
298.001
298.001
298
298
298
298
297.999
297.997
297.992
297.982
297.961
297.925
297.867
297.787
297.683
297.559
297.418
297.265
297.104
296.937
296.768
296.598
296.428
296.259
296.093
295.93
295.77
295.613
295.461
295.312
295.168
295.029
294.895
294.764
294.639
294.521
294.408
294.303
294.205
294.113
294.027
293.949
293.878
293.813
293.755
293.704
293.659
293.62
293.588
293.562
293.542
293.528
293.519
293.515
293.516
293.521
293.532
293.546
293.564
293.585
293.61
293.638
293.669
293.703
293.738
293.776
293.816
293.857
293.9
293.945
293.99
294.037
294.085
294.133
294.183
294.233
294.285
294.337
294.392
294.448
294.507
294.568
294.632
294.7
294.771
294.845
294.923
295.004
295.088
295.174
295.262
295.35
295.439
295.528
295.617
295.705
295.791
295.876
295.958
296.039
296.118
296.194
296.268
296.339
296.408
296.474
296.538
296.6
296.659
296.715
296.77
296.822
296.869
298
298
298
298
298
298
298
298
298
298
298
298
298
298
298
298
298
298
298
298
298
298
298
298
298
298
298
298
297.998
297.995
297.987
297.972
297.945
297.901
297.837
297.752
297.648
297.529
297.397
297.256
297.109
296.958
296.806
296.652
296.499
296.347
296.196
296.048
295.903
295.76
295.621
295.486
295.355
295.228
295.105
294.988
294.876
294.772
294.674
294.582
294.497
294.419
294.348
294.283
294.224
294.172
294.126
294.086
294.052
294.023
294
293.983
293.97
293.962
293.959
293.96
293.965
293.974
293.987
294.003
294.022
294.043
294.068
294.095
294.124
294.155
294.188
294.222
294.258
294.296
294.335
294.375
294.416
294.459
294.503
294.548
294.596
294.645
294.697
294.752
294.81
294.872
294.936
295.004
295.075
295.149
295.225
295.303
295.383
295.464
295.545
295.627
295.708
295.789
295.868
295.946
296.023
296.097
296.17
296.241
296.31
296.377
296.442
296.504
296.565
296.623
296.679
296.733
296.785
296.832
298
298
298
298
298
298
298
298
298
298
298
298
298
298
298
298
298
298
298
298
298
298
298
298
298
298
298
298
298
298
298
298
297.999
297.997
297.992
297.981
297.961
297.928
297.878
297.81
297.724
297.623
297.509
297.385
297.255
297.12
296.983
296.843
296.703
296.563
296.424
296.287
296.152
296.02
295.89
295.764
295.642
295.524
295.41
295.301
295.198
295.102
295.013
294.929
294.852
294.781
294.716
294.658
294.605
294.558
294.517
294.481
294.451
294.425
294.405
294.389
294.378
294.371
294.367
294.368
294.372
294.379
294.39
294.403
294.419
294.438
294.459
294.482
294.506
294.533
294.561
294.591
294.623
294.656
294.691
294.727
294.765
294.806
294.848
294.894
294.942
294.993
295.047
295.105
295.165
295.229
295.295
295.363
295.434
295.506
295.579
295.652
295.726
295.8
295.873
295.946
296.017
296.088
296.157
296.224
296.29
296.354
296.416
296.477
296.536
296.592
296.647
296.7
296.751
296.797
298
298
298
298
298
298
298
298
298
298
298
298
298
298
298
298
298
298
298
298
298
298
298
298
298
298
298
298
298
298
298
298
298
298
298
298
298
297.998
297.995
297.988
297.974
297.95
297.912
297.858
297.788
297.703
297.605
297.496
297.381
297.26
297.135
297.008
296.88
296.752
296.624
296.497
296.372
296.25
296.13
296.014
295.902
295.793
295.688
295.589
295.495
295.408
295.327
295.251
295.181
295.118
295.059
295.006
294.959
294.917
294.88
294.847
294.82
294.797
294.778
294.763
294.753
294.745
294.742
294.741
294.744
294.75
294.758
294.769
294.782
294.797
294.814
294.834
294.855
294.878
294.903
294.93
294.958
294.989
295.022
295.057
295.095
295.136
295.18
295.227
295.277
295.33
295.386
295.444
295.505
295.567
295.631
295.696
295.761
295.828
295.894
295.96
296.026
296.091
296.155
296.218
296.28
296.341
296.4
296.458
296.514
296.569
296.622
296.673
296.723
296.768
298
298
298
298
298
298
298
298
298
298
298
298
298
298
298
298
298
298
298
298
298
298
298
298
298
298
298
298
298
298
298
298
298
298
298
298
298
298
298
298
298
297.999
297.997
297.993
297.984
297.967
297.939
297.898
297.841
297.77
297.686
297.592
297.489
297.381
297.268
297.153
297.036
296.919
296.802
296.686
296.572
296.46
296.35
296.244
296.141
296.042
295.947
295.857
295.772
295.694
295.62
295.552
295.489
295.432
295.379
295.331
295.288
295.25
295.216
295.187
295.161
295.14
295.122
295.108
295.097
295.089
295.085
295.083
295.084
295.088
295.094
295.102
295.113
295.125
295.14
295.156
295.175
295.196
295.219
295.244
295.272
295.303
295.337
295.373
295.412
295.454
295.499
295.547
295.597
295.649
295.704
295.759
295.816
295.874
295.933
295.991
296.05
296.109
296.168
296.226
296.283
296.339
296.395
296.449
296.502
296.554
296.605
296.654
296.702
296.746
298
298
298
298
298
298
298
298
298
298
298
298
298
298
298
298
298
298
298
298
298
298
298
298
298
298
298
298
298
298
298
298
298
298
298
298
298
298
298
298
298
298
298
298
298
298
297.999
297.996
297.99
297.979
297.959
297.929
297.885
297.827
297.757
297.675
297.585
297.489
297.388
297.284
297.178
297.072
296.966
296.86
296.757
296.655
296.556
296.459
296.367
296.277
296.191
296.11
296.033
295.962
295.896
295.834
295.777
295.725
295.677
295.633
295.594
295.559
295.527
295.5
295.476
295.456
295.438
295.424
295.413
295.405
295.399
295.396
295.396
295.398
295.402
295.408
295.417
295.427
295.44
295.456
295.473
295.494
295.517
295.543
295.571
295.603
295.637
295.674
295.713
295.755
295.799
295.845
295.893
295.942
295.992
296.042
296.094
296.146
296.198
296.249
296.301
296.352
296.403
296.453
296.502
296.551
296.598
296.645
296.69
296.732
298
298
298
298
298
298
298
298
298
298
298
298
298
298
298
298
298
298
298
298
298
298
298
298
298
298
298
298
298
298
298
298
298
298
298
298
298
298
298
298
298
298
298
298
298
298
298
298
298
298
297.999
297.998
297.995
297.988
297.975
297.953
297.92
297.875
297.817
297.749
297.671
297.586
297.497
297.404
297.31
297.214
297.119
297.024
296.931
296.839
296.75
296.663
296.579
296.498
296.421
296.348
296.278
296.214
296.154
296.098
296.046
295.998
295.954
295.914
295.878
295.845
295.815
295.789
295.766
295.746
295.729
295.715
295.704
295.695
295.688
295.684
295.682
295.683
295.686
295.691
295.699
295.709
295.721
295.737
295.755
295.776
295.799
295.826
295.854
295.886
295.919
295.955
295.993
296.032
296.073
296.115
296.158
296.202
296.247
296.292
296.337
296.382
296.428
296.473
296.517
296.561
296.605
296.648
296.69
296.729
298
298
298
298
298
298
298
298
298
298
298
298
298
298
298
298
298
298
298
298
298
298
298
298
298
298
298
298
298
298
298
298
298
298
298
298
298
298
298
298
298
298
298
298
298
298
298
298
298
298
298
298
298
298
298
297.999
297.997
297.993
297.985
297.971
297.948
297.914
297.87
297.814
297.749
297.676
297.599
297.517
297.434
297.349
297.264
297.179
297.096
297.014
296.934
296.856
296.781
296.708
296.638
296.572
296.509
296.45
296.395
296.344
296.296
296.252
296.211
296.174
296.14
296.109
296.081
296.056
296.034
296.014
295.997
295.983
295.971
295.961
295.954
295.95
295.947
295.947
295.95
295.955
295.963
295.973
295.987
296.002
296.02
296.041
296.064
296.09
296.117
296.147
296.178
296.211
296.246
296.281
296.318
296.355
296.393
296.432
296.471
296.51
296.549
296.588
296.627
296.665
296.703
296.739
298
298
298
298
298
298
298
298
298
298
298
298
298
298
298
298
298
298
298
298
298
298
298
298
298
298
298
298
298
298
298
298
298
298
298
298
298
298
298
298
298
298
298
298
298
298
298
298
298
298
298
298
298
298
298
298
298
298
298
298
297.999
297.997
297.992
297.984
297.969
297.946
297.914
297.871
297.819
297.76
297.694
297.624
297.551
297.477
297.402
297.327
297.253
297.18
297.108
297.038
296.971
296.905
296.842
296.782
296.725
296.671
296.62
296.573
296.529
296.488
296.45
296.415
296.383
296.353
296.326
296.302
296.28
296.261
296.244
296.23
296.218
296.209
296.202
296.197
296.195
296.195
296.198
296.203
296.211
296.222
296.235
296.25
296.267
296.287
296.309
296.332
296.357
296.384
296.412
296.441
296.472
296.503
296.534
296.567
296.6
296.633
296.666
296.7
296.733
296.764
298
298
298
298
298
298
298
298
298
298
298
298
298
298
298
298
298
298
298
298
298
298
298
298
298
298
298
298
298
298
298
298
298
298
298
298
298
298
298
298
298
298
298
298
298
298
298
298
298
298
298
298
298
298
298
298
298
298
298
298
298
298
298
298
298
297.999
297.997
297.992
297.984
297.97
297.949
297.919
297.881
297.834
297.781
297.723
297.661
297.597
297.532
297.466
297.401
297.336
297.272
297.21
297.149
297.091
297.034
296.979
296.927
296.877
296.83
296.786
296.745
296.707
296.671
296.638
296.607
296.579
296.553
296.53
296.509
296.49
296.474
296.46
296.448
296.439
296.432
296.428
296.426
296.427
296.429
296.435
296.442
296.452
296.464
296.478
296.494
296.511
296.53
296.551
296.573
296.596
296.62
296.646
296.671
296.698
296.725
296.753
296.781
296.807
298
298
298
298
298
298
298
298
298
298
298
298
298
298
298
298
298
298
298
298
298
298
298
298
298
298
298
298
298
298
298
298
298
298
298
298
298
298
298
298
298
298
298
298
298
298
298
298
298
298
298
298
298
298
298
298
298
298
298
298
298
298
298
298
298
298
298
298
298
298
297.999
297.997
297.993
297.986
297.974
297.956
297.931
297.898
297.858
297.812
297.762