/*--------------------------------*- C++ -*----------------------------------*\
| =========                 |                                                 |
| \\      /  F ield         | OpenFOAM: The Open Source CFD Toolbox           |
|  \\    /   O peration     | Version:  1.7.x                                 |
|   \\  /    A nd           | Web:      www.OpenFOAM.com                      |
|    \\/     M anipulation  |                                                 |
\*---------------------------------------------------------------------------*/
FoamFile
{
    version     2.0;
    format      ascii;
    class       volVectorField;
    location    "2200";
    object      U;
}
// * * * * * * * * * * * * * * * * * * * * * * * * * * * * * * * * * * * * * //

dimensions      [0 1 -1 0 0 0 0];

internalField   nonuniform List<vector> 
5460
(
(29.5076 0.00266727 0)
(29.4935 0.00376476 -1.22166e-18)
(29.4626 0.0043773 -6.07149e-18)
(29.4245 0.00462008 -1.49666e-16)
(29.3854 0.00470408 -1.92423e-15)
(29.3458 0.00472142 -6.51925e-15)
(29.3053 0.00469728 -2.75157e-14)
(29.2643 0.00465782 -1.83947e-13)
(29.2229 0.00461772 -1.10241e-11)
(29.181 0.0045815 -5.18056e-12)
(29.1387 0.00455117 -2.74069e-12)
(29.0959 0.0045276 -1.65005e-12)
(29.0525 0.00451076 -1.07715e-12)
(29.0085 0.00450037 -7.24211e-13)
(28.9637 0.00449604 -4.44809e-13)
(28.918 0.00449755 -2.21836e-13)
(28.8715 0.00450568 -5.4139e-14)
(28.8241 0.00452232 5.80001e-14)
(28.7755 0.00454968 -2.05479e-13)
(28.7256 0.00459048 -6.45884e-16)
(28.6743 0.00464847 2.08483e-13)
(28.6213 0.00472846 3.4314e-13)
(28.5663 0.00483642 3.56577e-13)
(28.5088 0.00498029 3.23514e-13)
(28.4482 0.00517026 7.07141e-13)
(28.384 0.00541837 1.34335e-12)
(28.3151 0.00573882 1.92295e-12)
(28.2404 0.00614859 2.14786e-12)
(28.1586 0.00666757 2.1385e-12)
(28.0679 0.00731887 2.06664e-12)
(27.9661 0.00812868 1.93871e-12)
(27.8506 0.00912411 1.67524e-12)
(27.7184 0.0103299 1.36596e-12)
(27.5661 0.0117638 5.94266e-13)
(27.39 0.0134289 1.81818e-13)
(27.1861 0.015307 -1.36838e-11)
(26.951 0.0173523 -4.10222e-12)
(26.6818 0.0194899 -1.36127e-12)
(26.3768 0.021622 -3.89567e-13)
(26.0357 0.0236411 8.83389e-12)
(25.6598 0.0254466 2.09005e-12)
(25.2519 0.0269597 7.13647e-13)
(24.8159 0.0281316 4.33536e-13)
(24.3563 0.0289447 2.89982e-13)
(23.8783 0.0294075 -2.73596e-13)
(23.3867 0.0295483 -4.40796e-13)
(22.8862 0.0294071 3.75033e-14)
(22.381 0.0290291 -3.5913e-14)
(21.8748 0.0284593 -3.40508e-13)
(21.3707 0.0277402 -1.13017e-12)
(20.8714 0.0269095 -5.67932e-13)
(20.3788 0.0259993 6.92722e-13)
(19.8947 0.0250357 2.87138e-13)
(19.4204 0.0240394 -1.13452e-11)
(18.9568 0.0230272 -1.10467e-12)
(18.5048 0.0220132 -8.54474e-14)
(18.0647 0.0210089 -2.05142e-14)
(17.6371 0.0200242 3.37709e-13)
(17.222 0.0190669 2.37302e-13)
(16.8193 0.0181427 4.98472e-13)
(16.4289 0.0172542 1.31612e-12)
(16.0507 0.0164023 6.82968e-13)
(15.6844 0.0155866 -5.55392e-12)
(15.3298 0.0148059 -1.03222e-12)
(14.9866 0.014059 -5.12208e-13)
(14.6546 0.0133454 -5.48475e-12)
(14.3335 0.0126649 -9.86091e-13)
(14.0231 0.0120174 6.42181e-12)
(13.723 0.0114023 6.53551e-13)
(13.4329 0.0108188 6.23695e-14)
(13.1524 0.0102658 2.36588e-13)
(12.8813 0.00974182 1.10289e-12)
(12.6192 0.00924536 -8.14674e-14)
(12.3657 0.00877503 -1.17333e-12)
(12.1207 0.00832961 -2.32778e-13)
(11.8837 0.00790795 4.52366e-14)
(11.6545 0.00750884 1.04855e-13)
(11.4327 0.00713119 4.48012e-14)
(11.2182 0.00677396 -1.63783e-12)
(11.0106 0.00643611 5.19098e-12)
(10.8097 0.00611654 6.94857e-13)
(10.6152 0.00581422 2.70342e-13)
(10.4268 0.00552818 9.94094e-13)
(10.2443 0.00525748 1.3431e-12)
(10.0676 0.0050012 3.38098e-12)
(9.89633 0.00475848 1.26163e-12)
(9.73035 0.00452858 4.50758e-13)
(9.56947 0.0043109 -2.56284e-13)
(9.41348 0.00410488 5.06694e-14)
(9.26221 0.00390997 1.06293e-12)
(9.1155 0.00372568 6.41987e-13)
(8.97317 0.00355154 -5.24156e-13)
(8.83508 0.0033871 1.25387e-12)
(8.70106 0.00323187 3.07847e-13)
(8.57099 0.00308528 8.30815e-14)
(8.44473 0.00294674 -9.88543e-13)
(8.32214 0.00281562 -5.44853e-13)
(8.20311 0.00269128 -2.10824e-12)
(8.08752 0.00257307 -1.94294e-13)
(7.97522 0.00246036 5.27934e-13)
(7.86611 0.0023526 8.76173e-13)
(7.76007 0.00224933 -2.61924e-12)
(7.65699 0.00215023 6.73495e-13)
(7.55675 0.00205505 -1.93657e-13)
(7.45925 0.00196365 -2.72099e-12)
(7.3644 0.00187591 -9.8599e-13)
(7.2721 0.00179179 7.70922e-12)
(7.18227 0.00171125 2.90145e-14)
(7.09484 0.00163427 -9.64677e-13)
(7.00971 0.00156078 1.24898e-12)
(6.92682 0.00149071 -8.82733e-12)
(6.84609 0.00142394 -1.82678e-12)
(6.76747 0.00136038 -1.04566e-13)
(6.69087 0.00129988 -5.33099e-14)
(6.61624 0.00124234 -3.48257e-13)
(6.54351 0.0011876 -2.27098e-13)
(6.47262 0.00113552 -1.08373e-13)
(6.40352 0.00108594 7.19631e-13)
(6.33615 0.00103873 -6.44588e-13)
(6.27046 0.000993728 -1.74805e-13)
(6.20641 0.000950862 -1.33682e-12)
(6.14393 0.000909757 1.46683e-12)
(6.08303 0.000870675 7.58529e-12)
(6.02361 0.000831993 5.17049e-13)
(5.96588 0.000796343 2.34792e-13)
(5.90933 0.000754288 1.5089e-13)
(5.85566 0.000724769 7.40773e-12)
(5.80132 0.000649014 1.69689e-13)
(5.75752 0.000651912 1.96589e-12)
(5.70004 0.000370916 -3.89623e-13)
(29.4133 0.00582998 0)
(29.401 0.00920235 -2.49018e-18)
(29.3716 0.010899 -3.12626e-17)
(29.3344 0.0116192 -5.91381e-16)
(29.2961 0.0119604 -8.77101e-15)
(29.2569 0.0120863 -2.63896e-14)
(29.2168 0.012067 -1.0913e-13)
(29.176 0.011992 -3.43081e-13)
(29.1348 0.0119071 -7.66495e-12)
(29.0931 0.0118264 -5.46877e-12)
(29.0509 0.0117573 -3.98896e-12)
(29.0081 0.0117039 -2.94931e-12)
(28.9647 0.0116672 -2.21433e-12)
(28.9206 0.011647 -1.61521e-12)
(28.8757 0.0116431 -9.53932e-13)
(28.83 0.0116553 -3.95757e-13)
(28.7833 0.011686 1.77907e-14)
(28.7355 0.0117408 2.74735e-13)
(28.6864 0.0118259 -1.00953e-12)
(28.6359 0.0119491 1.97642e-13)
(28.5838 0.0121208 7.92859e-13)
(28.5296 0.0123544 1.08416e-12)
(28.4729 0.0126665 9.71472e-13)
(28.4133 0.0130785 8.15109e-13)
(28.3501 0.0136182 2.43575e-12)
(28.2824 0.014318 4.56521e-12)
(28.2091 0.0152159 6.41241e-12)
(28.129 0.0163567 6.60744e-12)
(28.0404 0.0177921 6.27871e-12)
(27.9415 0.019581 5.80937e-12)
(27.83 0.0217877 5.32883e-12)
(27.7033 0.024476 4.46642e-12)
(27.5586 0.0276996 3.59331e-12)
(27.3926 0.0314901 1.0531e-12)
(27.2023 0.0358404 4.44071e-13)
(26.9847 0.0406902 -1.08638e-11)
(26.7373 0.0459167 -5.11332e-12)
(26.4583 0.051333 -2.21255e-12)
(26.1468 0.0567047 -7.29087e-13)
(25.8031 0.0617788 3.07861e-12)
(25.4285 0.0663187 2.39828e-12)
(25.0257 0.0701374 1.38928e-12)
(24.5977 0.0731154 1.05658e-12)
(24.1487 0.0752043 7.33976e-13)
(23.6826 0.0764189 -7.35009e-13)
(23.2039 0.076822 -1.20258e-12)
(22.7166 0.0765076 2.59287e-13)
(22.2245 0.0755844 -1.31465e-13)
(21.731 0.0741635 -1.04988e-12)
(21.2389 0.0723507 -3.39077e-12)
(20.7508 0.0702418 -1.53988e-12)
(20.2687 0.0679192 2.33778e-12)
(19.7942 0.06545 8.96348e-13)
(19.3286 0.0628884 -1.28084e-11)
(18.8731 0.0602787 -1.79901e-12)
(18.4283 0.0576579 -1.134e-13)
(17.9949 0.0550568 -5.08805e-14)
(17.5733 0.0525017 9.8177e-13)
(17.1636 0.0500141 6.5041e-13)
(16.7659 0.047609 1.43839e-12)
(16.38 0.0452945 3.713e-12)
(16.0059 0.0430731 1.90363e-12)
(15.6433 0.0409441 -7.43906e-12)
(15.292 0.0389048 -2.60721e-12)
(14.9519 0.0369524 -1.38484e-12)
(14.6227 0.0350856 -4.48096e-12)
(14.3041 0.0333044 -2.44643e-12)
(13.996 0.0316085 5.40778e-12)
(13.698 0.0299967 1.29435e-12)
(13.4099 0.028467 -3.67584e-14)
(13.1312 0.0270166 6.75362e-13)
(12.8616 0.0256419 3.22839e-12)
(12.601 0.0243389 -2.10731e-13)
(12.3489 0.023104 -3.37541e-12)
(12.105 0.0219343 -6.18004e-13)
(11.8691 0.0208265 1.4079e-13)
(11.6409 0.0197777 3.00504e-13)
(11.4202 0.0187851 1.29594e-13)
(11.2065 0.0178459 -4.76878e-12)
(10.9997 0.0169574 6.32465e-12)
(10.7995 0.0161169 1.80722e-12)
(10.6057 0.0153216 7.58078e-13)
(10.4179 0.014569 2.89342e-12)
(10.2361 0.0138566 3.84968e-12)
(10.0599 0.0131821 8.67809e-12)
(9.88912 0.0125432 3.3759e-12)
(9.7236 0.011938 1.24667e-12)
(9.56314 0.0113649 -7.70112e-13)
(9.40756 0.0108224 1.46959e-13)
(9.25666 0.0103091 3.04315e-12)
(9.11029 0.00982367 1.81585e-12)
(8.96828 0.00936497 -1.55563e-12)
(8.83048 0.00893179 3.47789e-12)
(8.69674 0.00852281 8.46951e-13)
(8.56693 0.00813658 2.3268e-13)
(8.4409 0.00777152 -2.84089e-12)
(8.31854 0.00742598 -1.53655e-12)
(8.19972 0.00709829 -6.0321e-12)
(8.08431 0.00678673 -5.34356e-13)
(7.9722 0.00648967 1.50149e-12)
(7.86326 0.00620562 2.5029e-12)
(7.75738 0.00593341 -7.56979e-12)
(7.65444 0.00567216 2.08651e-12)
(7.55434 0.00542126 -5.57932e-13)
(7.45697 0.00518028 -7.98536e-12)
(7.36224 0.00494896 -2.78821e-12)
(7.27006 0.00472716 8.94656e-12)
(7.18034 0.00451481 -2.54553e-14)
(7.093 0.00431182 -2.67461e-12)
(7.00797 0.00411803 3.61358e-12)
(6.92517 0.00393324 -1.2394e-11)
(6.84453 0.00375717 -5.13724e-12)
(6.76598 0.00358951 -2.79887e-13)
(6.68945 0.00342997 -1.51521e-13)
(6.61489 0.00327819 -9.95301e-13)
(6.54223 0.0031338 -6.44805e-13)
(6.4714 0.00299642 -3.0752e-13)
(6.40236 0.00286563 2.05579e-12)
(6.33504 0.0027411 -1.85898e-12)
(6.26941 0.00262239 -4.92147e-13)
(6.2054 0.0025093 -3.75778e-12)
(6.14297 0.00240087 4.18719e-12)
(6.08212 0.00229775 1.10647e-11)
(6.02273 0.00219572 1.39911e-12)
(5.96505 0.0021016 6.6458e-13)
(5.90854 0.00199081 4.23486e-13)
(5.8549 0.00191251 1.03036e-11)
(5.80059 0.00171366 4.12201e-13)
(5.75682 0.00171879 5.44329e-12)
(5.69937 0.000982228 -1.12587e-12)
(29.2179 0.00872563 -1.53401e-19)
(29.2047 0.014543 -3.11815e-18)
(29.1748 0.0171436 -9.7287e-17)
(29.1375 0.0182201 -2.51171e-15)
(29.0992 0.0188174 -4.83663e-14)
(29.0602 0.0190656 -1.11945e-13)
(29.0202 0.0190618 -5.07792e-13)
(28.9796 0.0189667 -7.21964e-13)
(28.9384 0.0188546 -1.88998e-12)
(28.8968 0.018746 1.63103e-12)
(28.8546 0.0186538 -1.13367e-14)
(28.8118 0.0185859 -7.73345e-13)
(28.7683 0.0185454 -1.04573e-12)
(28.724 0.018534 -1.02105e-12)
(28.6788 0.0185528 1.21322e-13)
(28.6326 0.0186038 7.34219e-13)
(28.5852 0.0186936 1.04908e-12)
(28.5364 0.0188339 1.10046e-12)
(28.486 0.0190379 -5.91614e-12)
(28.4336 0.0193217 3.43322e-12)
(28.3789 0.0197063 2.69427e-12)
(28.3213 0.0202178 2.27939e-12)
(28.2603 0.0208876 9.91546e-13)
(28.195 0.0217556 5.52272e-13)
(28.1245 0.0228717 8.10328e-12)
(28.0476 0.0242923 1.31553e-11)
(27.9629 0.0260808 1.69293e-11)
(27.8689 0.0283081 1.28593e-11)
(27.7636 0.0310497 1.03536e-11)
(27.645 0.0343823 8.73535e-12)
(27.5109 0.0383787 7.5591e-12)
(27.3591 0.0430942 5.41651e-12)
(27.1872 0.048553 4.21842e-12)
(26.9933 0.0547352 -2.80891e-12)
(26.7756 0.0615635 2.06481e-13)
(26.5329 0.0688981 -8.60313e-13)
(26.2644 0.0765387 -5.74341e-13)
(25.97 0.0842326 -6.2977e-14)
(25.6499 0.0916958 3.76663e-13)
(25.3049 0.0986402 1.4913e-12)
(24.9364 0.104804 1.62024e-12)
(24.5461 0.109978 1.00078e-12)
(24.1363 0.114024 1.13214e-12)
(23.7095 0.116879 8.68944e-13)
(23.2686 0.118549 -1.1812e-12)
(22.8166 0.119099 -1.82832e-12)
(22.3566 0.118639 1.26411e-12)
(21.8915 0.117303 -4.98332e-13)
(21.4241 0.115232 -2.26765e-12)
(20.957 0.112571 -6.90167e-12)
(20.4924 0.109451 -2.08906e-12)
(20.0321 0.10599 6.02598e-12)
(19.5778 0.102286 1.484e-12)
(19.1309 0.0984215 -4.76742e-12)
(18.6923 0.0944633 4.52128e-13)
(18.2631 0.0904693 3.1094e-13)
(17.8439 0.0864886 -7.06476e-14)
(17.4351 0.0825637 1.79846e-12)
(17.0371 0.0787301 9.76014e-13)
(16.65 0.0750131 2.52183e-12)
(16.2738 0.0714268 6.2735e-12)
(15.9085 0.067977 2.88177e-12)
(15.5539 0.0646638 -6.11326e-12)
(15.2099 0.0614844 -3.34207e-12)
(14.8763 0.0584352 -2.0311e-12)
(14.5531 0.0555152 -2.82764e-12)
(14.2401 0.052725 -3.58599e-12)
(13.937 0.050065 -3.14486e-12)
(13.6435 0.0475338 7.31302e-13)
(13.3595 0.045129 -7.59432e-13)
(13.0846 0.0428468 1.22726e-12)
(12.8186 0.0406817 6.09849e-12)
(12.5611 0.038628 -2.82908e-13)
(12.3119 0.0366801 -5.91743e-12)
(12.0707 0.0348336 -7.39318e-13)
(11.8373 0.0330837 3.06827e-13)
(11.6113 0.0314259 5.11608e-13)
(11.3926 0.0298559 2.29321e-13)
(11.1809 0.0283696 -8.56477e-12)
(10.9759 0.026963 1.56829e-12)
(10.7773 0.0256316 2.76483e-12)
(10.5849 0.0243714 1.19315e-12)
(10.3986 0.0231783 5.16943e-12)
(10.218 0.0220487 6.51827e-12)
(10.043 0.0209788 7.85578e-12)
(9.8733 0.0199651 4.4397e-12)
(9.7088 0.0190044 1.87976e-12)
(9.54928 0.0180945 -1.53924e-12)
(9.39456 0.0172329 2.68483e-13)
(9.24448 0.0164175 5.1836e-12)
(9.09886 0.0156463 2.94641e-12)
(8.95754 0.0149173 -2.94771e-12)
(8.82039 0.0142287 5.5997e-12)
(8.68726 0.0135784 1.24356e-12)
(8.55801 0.0129642 3.66607e-13)
(8.43251 0.0123835 -4.8857e-12)
(8.31064 0.0118338 -2.45954e-12)
(8.19227 0.0113124 -1.02222e-11)
(8.07729 0.0108167 -7.85082e-13)
(7.96557 0.0103439 2.47657e-12)
(7.857 0.00989181 4.2204e-12)
(7.75147 0.00945852 -1.3423e-11)
(7.64886 0.00904265 4.24073e-12)
(7.54906 0.00864321 -9.87609e-13)
(7.45198 0.00825953 -1.4148e-11)
(7.35752 0.00789121 -4.45702e-12)
(7.26559 0.00753801 2.52597e-12)
(7.17611 0.00719982 -3.25986e-13)
(7.08899 0.00687649 -4.05346e-12)
(7.00417 0.00656779 6.32602e-12)
(6.92156 0.00627339 -8.89375e-12)
(6.8411 0.00599284 -8.5598e-12)
(6.76272 0.00572569 -3.51098e-13)
(6.68636 0.00547143 -2.50344e-13)
(6.61195 0.00522953 -1.68041e-12)
(6.53943 0.00499938 -1.06151e-12)
(6.46874 0.00478038 -5.05184e-13)
(6.39983 0.00457189 3.46113e-12)
(6.33264 0.00437335 -3.24611e-12)
(6.26711 0.00418408 -7.82012e-13)
(6.20322 0.00400376 -6.00456e-12)
(6.14089 0.00383086 7.05887e-12)
(6.08013 0.0036664 7.85412e-12)
(6.02084 0.00350373 2.094e-12)
(5.96324 0.00335349 1.08215e-12)
(5.90681 0.00317709 6.79337e-13)
(5.85325 0.00305143 7.06718e-12)
(5.79901 0.0027361 4.58052e-13)
(5.7553 0.00273968 8.57689e-12)
(5.69792 0.00157321 -1.96713e-12)
(28.9161 0.0123917 0)
(28.9015 0.0206897 -1.14087e-17)
(28.8703 0.0240455 -3.33713e-16)
(28.8325 0.0254157 -1.11557e-14)
(28.7939 0.0262493 -3.15096e-13)
(28.7547 0.0265887 -4.87745e-13)
(28.7146 0.0265755 -3.12008e-12)
(28.6738 0.026448 -2.22997e-12)
(28.6326 0.0263025 -4.52882e-12)
(28.5908 0.0261651 -6.38739e-13)
(28.5485 0.0260554 -7.73727e-13)
(28.5054 0.0259862 -9.17844e-13)
(28.4615 0.0259643 -9.88547e-13)
(28.4166 0.0259958 -8.87018e-13)
(28.3705 0.0260863 5.00485e-12)
(28.323 0.0262431 3.82088e-12)
(28.2738 0.0264816 3.03439e-12)
(28.2225 0.026825 2.50823e-12)
(28.1687 0.0272996 1.18678e-12)
(28.1119 0.0279364 1.63272e-12)
(28.0513 0.0287743 1.83662e-12)
(27.9861 0.0298599 1.85424e-12)
(27.9154 0.0312468 -3.39372e-12)
(27.8379 0.0329997 -1.84251e-12)
(27.7524 0.0351942 2.98007e-12)
(27.6573 0.0379092 4.6024e-12)
(27.5508 0.0412236 1.05159e-11)
(27.4314 0.0452128 1.31007e-11)
(27.2971 0.0499391 9.83283e-12)
(27.1463 0.0554456 8.17103e-12)
(26.9776 0.0617481 7.05899e-12)
(26.7899 0.0688231 1.63498e-12)
(26.5822 0.0766009 2.73382e-12)
(26.3545 0.0849653 1.78875e-12)
(26.1066 0.093756 5.78904e-12)
(25.8391 0.102777 4.21479e-12)
(25.5526 0.111809 2.97174e-12)
(25.2479 0.120617 2.21816e-12)
(24.9258 0.128957 1.77078e-12)
(24.5872 0.136597 9.20105e-13)
(24.2328 0.143323 8.83741e-13)
(23.8636 0.14896 -7.09824e-14)
(23.4806 0.15338 5.32203e-13)
(23.0852 0.156512 5.5621e-13)
(22.6789 0.158342 -2.06479e-12)
(22.2633 0.158911 -2.16608e-12)
(21.8405 0.158311 -3.76047e-12)
(21.4123 0.156665 -1.93489e-12)
(20.981 0.154117 -4.42786e-12)
(20.5484 0.150818 5.15495e-13)
(20.1165 0.146918 -9.89747e-13)
(19.6868 0.142553 1.72181e-12)
(19.2611 0.137843 8.51946e-13)
(18.8405 0.132889 -1.80109e-12)
(18.4262 0.127778 3.9029e-12)
(18.0193 0.122587 6.70843e-13)
(17.6205 0.117384 -2.14876e-13)
(17.2304 0.112227 2.81509e-12)
(16.8494 0.107166 1.03732e-12)
(16.4778 0.10224 3.94488e-12)
(16.1157 0.0974689 5.27133e-12)
(15.7632 0.0928646 3.19464e-12)
(15.4203 0.0884295 -7.50077e-12)
(15.087 0.0841618 -3.70303e-12)
(14.7632 0.080059 -2.46317e-12)
(14.449 0.0761212 -1.16998e-12)
(14.144 0.0723507 -5.11646e-12)
(13.8483 0.0687493 -2.81086e-12)
(13.5617 0.0653166 2.64391e-13)
(13.2839 0.0620502 4.4388e-12)
(13.0146 0.0589459 2.03309e-12)
(12.7538 0.0559972 3.84873e-12)
(12.501 0.0531967 -2.31126e-13)
(12.2562 0.0505375 -3.13727e-12)
(12.019 0.048014 -2.94653e-13)
(11.7893 0.0456204 5.78288e-13)
(11.5667 0.0433506 7.42179e-13)
(11.3511 0.0411992 3.63033e-13)
(11.1422 0.039161 -8.05456e-12)
(10.9398 0.0372306 -1.43662e-13)
(10.7437 0.0354024 4.14245e-12)
(10.5536 0.0336708 1.52597e-12)
(10.3693 0.0320307 3.2774e-12)
(10.1906 0.030477 4.53497e-12)
(10.0174 0.0290047 8.24999e-12)
(9.84938 0.027609 4.69577e-12)
(9.6864 0.026286 2.29526e-12)
(9.5283 0.0250322 -2.71565e-12)
(9.3749 0.0238445 4.67902e-13)
(9.22603 0.0227202 7.54191e-12)
(9.08155 0.0216563 3.96012e-12)
(8.94129 0.0206503 -5.15006e-12)
(8.80512 0.0196998 3.69354e-12)
(8.6729 0.018802 1.36998e-12)
(8.5445 0.0179536 4.77273e-13)
(8.41979 0.0171515 -7.30004e-12)
(8.29866 0.0163919 -3.22556e-12)
(8.18098 0.0156713 -1.4872e-11)
(8.06665 0.0149859 -4.57285e-12)
(7.95553 0.0143323 -2.70113e-13)
(7.84753 0.0137072 6.08124e-12)
(7.74252 0.0131079 -1.32851e-11)
(7.6404 0.0125327 2.74054e-13)
(7.54107 0.0119802 -1.56887e-12)
(7.44442 0.0114494 -1.41403e-11)
(7.35036 0.0109398 -5.7643e-12)
(7.25881 0.010451 -3.93908e-13)
(7.16969 0.00998293 -6.13754e-13)
(7.08291 0.00953537 -4.6441e-12)
(6.9984 0.00910799 3.07065e-12)
(6.91609 0.00870033 -8.26396e-12)
(6.83591 0.0083118 -5.98043e-12)
(6.7578 0.00794177 -2.01639e-13)
(6.68168 0.00758956 -3.50024e-13)
(6.60751 0.00725442 -2.42078e-12)
(6.53521 0.00693553 -1.46568e-12)
(6.46472 0.00663204 -6.95988e-13)
(6.396 0.00634309 4.98744e-12)
(6.32899 0.00606791 -4.91316e-12)
(6.26364 0.00580555 -1.00749e-12)
(6.19991 0.00555558 -7.74164e-12)
(6.13774 0.00531587 1.00525e-11)
(6.07713 0.00508783 6.42607e-12)
(6.01797 0.0048623 2.69625e-12)
(5.9605 0.00465388 1.47527e-12)
(5.9042 0.0044094 9.14023e-13)
(5.85075 0.00423464 5.50139e-12)
(5.79663 0.00379833 3.59079e-13)
(5.75301 0.00380043 6.54107e-12)
(5.69574 0.00218725 -2.98261e-12)
(28.4993 0.0168572 -2.41657e-18)
(28.4821 0.0274893 -4.1827e-17)
(28.449 0.0312674 -9.20584e-16)
(28.4103 0.0328055 -4.16508e-14)
(28.3713 0.0338174 -2.24874e-12)
(28.3317 0.0341884 -1.68025e-12)
(28.2912 0.0341316 -1.54956e-12)
(28.2502 0.0339614 -1.42661e-12)
(28.2087 0.0337853 -1.68672e-12)
(28.1665 0.0336347 -1.45302e-12)
(28.1236 0.033538 -1.32619e-12)
(28.0797 0.0335158 -1.25277e-12)
(28.0346 0.033583 -1.19353e-12)
(27.9879 0.0337549 -1.06379e-12)
(27.9394 0.0340476 2.13309e-12)
(27.8885 0.0344806 2.32037e-12)
(27.8348 0.0350854 2.2254e-12)
(27.7775 0.0359057 2.06969e-12)
(27.7159 0.036989 1.79287e-12)
(27.6489 0.0383893 1.68618e-12)
(27.5755 0.0401704 1.66498e-12)
(27.4945 0.0424031 1.65288e-12)
(27.4044 0.0451612 8.1708e-13)
(27.3038 0.0485237 4.54858e-13)
(27.1912 0.0525691 1.00685e-12)
(27.065 0.05736 1.59832e-12)
(26.9239 0.0629364 2.82382e-12)
(26.7668 0.0693092 4.04396e-12)
(26.593 0.0764529 4.45518e-12)
(26.4021 0.0843055 4.5682e-12)
(26.1942 0.0927737 4.51017e-12)
(25.9699 0.101733 4.20155e-12)
(25.73 0.111034 3.90252e-12)
(25.4754 0.120516 3.29415e-12)
(25.2073 0.130011 3.63627e-12)
(24.9268 0.139358 6.52344e-12)
(24.6349 0.148402 4.48579e-12)
(24.3325 0.156991 3.30958e-12)
(24.0201 0.164978 2.52224e-12)
(23.6981 0.172214 -9.61352e-13)
(23.3669 0.178559 1.3237e-13)
(23.0267 0.183885 -2.45433e-12)
(22.6775 0.188085 -4.93878e-13)
(22.3198 0.19108 -2.80391e-13)
(21.9539 0.192828 -4.07302e-12)
(21.5806 0.193334 -2.19155e-12)
(21.2008 0.192646 -3.20215e-12)
(20.8156 0.190855 -2.35043e-12)
(20.4264 0.188075 -2.89955e-12)
(20.0346 0.184441 -1.08847e-12)
(19.6416 0.180095 -9.53513e-13)
(19.2488 0.175176 2.54086e-13)
(18.8576 0.169809 2.95569e-13)
(18.4692 0.164104 -7.8852e-13)
(18.0848 0.158162 1.13715e-12)
(17.7055 0.152075 3.99313e-14)
(17.3321 0.145926 -6.40205e-13)
(16.9653 0.139791 9.03372e-13)
(16.6057 0.133734 5.16731e-13)
(16.2537 0.127805 6.27367e-12)
(15.9096 0.122036 4.90237e-12)
(15.5735 0.116442 3.27632e-12)
(15.2457 0.111033 -5.45189e-12)
(14.9261 0.105809 -3.47409e-12)
(14.6149 0.10077 -2.75312e-12)
(14.3121 0.0959192 6.20145e-13)
(14.0177 0.0912618 -2.26618e-12)
(13.7317 0.086802 -2.30517e-12)
(13.4538 0.0825413 -2.88746e-13)
(13.1841 0.0784784 4.25026e-12)
(12.9222 0.0746096 2.52811e-12)
(12.6681 0.0709282 3.04936e-12)
(12.4216 0.0674261 1.67516e-13)
(12.1825 0.0640956 -1.45524e-12)
(11.9505 0.0609306 3.83588e-13)
(11.7256 0.0579244 9.31614e-13)
(11.5075 0.0550704 9.87739e-13)
(11.296 0.0523621 5.14381e-13)
(11.0909 0.0497937 -9.27448e-12)
(10.892 0.047359 -4.17961e-12)
(10.699 0.0450511 2.30697e-12)
(10.5119 0.0428634 1.69415e-12)
(10.3304 0.0407897 2.71504e-12)
(10.1543 0.0388239 3.55659e-12)
(9.98338 0.0369598 5.91683e-12)
(9.81754 0.0351917 4.27038e-12)
(9.65659 0.0335145 2.56749e-12)
(9.50037 0.0319243 -9.12088e-13)
(9.34871 0.0304172 8.51538e-13)
(9.20146 0.0289896 1.0032e-11)
(9.05848 0.0276382 4.7662e-12)
(8.91963 0.0263598 -1.74428e-12)
(8.78476 0.0251513 2.65206e-12)
(8.65376 0.0240093 1.38917e-12)
(8.52649 0.0229299 5.77385e-13)
(8.40284 0.0219088 -1.04273e-11)
(8.28269 0.0209416 -3.73078e-12)
(8.16593 0.0200238 -2.0303e-11)
(8.05245 0.0191507 -7.42467e-12)
(7.94214 0.0183178 -2.33412e-12)
(7.83488 0.0175211 2.63157e-12)
(7.73058 0.0167572 -9.9608e-12)
(7.62911 0.0160239 -1.77058e-12)
(7.5304 0.0153193 -2.13951e-12)
(7.43432 0.0146423 -1.53834e-11)
(7.34081 0.0139922 -6.73389e-12)
(7.24977 0.0133686 -1.32656e-12)
(7.16112 0.0127713 -7.88309e-13)
(7.07479 0.0122 -4.54167e-12)
(6.9907 0.0116544 1.24467e-12)
(6.90879 0.0111338 -4.1467e-12)
(6.82898 0.0106376 6.05856e-13)
(6.75122 0.0101649 7.6538e-14)
(6.67543 0.00971487 -4.59397e-13)
(6.60157 0.0092866 -3.23996e-12)
(6.52956 0.00887902 -1.84733e-12)
(6.45935 0.00849108 -8.76809e-13)
(6.39089 0.00812166 6.74309e-12)
(6.32413 0.00776981 -6.99221e-12)
(6.25901 0.00743431 -1.12639e-12)
(6.1955 0.0071146 -9.13984e-12)
(6.13353 0.00680799 1.28299e-11)
(6.07312 0.00651626 5.6881e-12)
(6.01415 0.00622774 3.26709e-12)
(5.95685 0.005961 1.83888e-12)
(5.90072 0.00564822 1.12534e-12)
(5.84742 0.00542427 7.72485e-13)
(5.79345 0.00486629 1.70546e-13)
(5.74995 0.00486747 5.10192e-12)
(5.69282 0.00280434 -4.07646e-12)
(27.9515 0.0222275 -1.08587e-17)
(27.9316 0.0349572 -1.49939e-16)
(27.8965 0.0387313 -1.017e-15)
(27.8572 0.040359 -1.69067e-14)
(27.8178 0.0415312 -4.60758e-13)
(27.7778 0.0418975 -6.38441e-13)
(27.7369 0.0417916 -7.15192e-13)
(27.6955 0.0416027 -7.55616e-13)
(27.6532 0.0414413 -8.61806e-13)
(27.61 0.0413496 -9.44192e-13)
(27.5654 0.0413714 -1.00733e-12)
(27.5191 0.0415416 -1.04925e-12)
(27.4706 0.0418916 -1.06667e-12)
(27.4193 0.0424563 -1.03241e-12)
(27.3644 0.0432721 -1.86424e-13)
(27.3051 0.0443801 4.34066e-13)
(27.2404 0.0458379 7.82701e-13)
(27.1692 0.0477167 9.75889e-13)
(27.0902 0.0500883 1.05821e-12)
(27.0021 0.0530259 1.10255e-12)
(26.9035 0.0566041 1.19759e-12)
(26.7929 0.0608893 1.2748e-12)
(26.6692 0.0659297 1.11824e-12)
(26.5312 0.0717554 8.33026e-13)
(26.3781 0.0783708 6.80143e-13)
(26.2097 0.085739 7.74052e-13)
(26.0259 0.093784 1.07246e-12)
(25.8272 0.102397 1.4995e-12)
(25.6145 0.111442 1.88805e-12)
(25.3889 0.120771 2.19022e-12)
(25.1518 0.130241 2.44421e-12)
(24.9046 0.139713 5.58632e-12)
(24.6485 0.149064 4.38506e-12)
(24.3848 0.158184 3.56998e-12)
(24.1145 0.16698 2.94804e-12)
(23.8384 0.175374 3.74268e-12)
(23.5573 0.183303 3.54168e-12)
(23.2713 0.190703 3.07712e-12)
(22.9808 0.197508 2.52317e-12)
(22.6857 0.203641 4.67414e-13)
(22.3858 0.209018 1.54135e-13)
(22.0807 0.213551 -1.32419e-12)
(21.7702 0.217151 -9.04131e-13)
(21.4539 0.219736 -1.00619e-12)
(21.1316 0.221238 -3.26433e-12)
(20.8033 0.221624 -8.30156e-13)
(20.4692 0.220899 -3.90267e-12)
(20.1297 0.219103 -2.59772e-12)
(19.7857 0.21631 -2.37491e-12)
(19.4378 0.21262 -1.45579e-12)
(19.0871 0.20815 -1.01292e-12)
(18.7348 0.203023 -3.13965e-13)
(18.382 0.197354 -6.85453e-14)
(18.0297 0.191255 -4.83798e-13)
(17.679 0.18483 -2.96387e-13)
(17.3311 0.178181 -7.47983e-13)
(16.9869 0.171402 -1.21867e-12)
(16.647 0.164581 -4.10004e-13)
(16.3123 0.157797 -1.29886e-13)
(15.9832 0.151112 5.00525e-12)
(15.6601 0.144567 4.48779e-12)
(15.3434 0.138188 3.21493e-12)
(15.0333 0.131988 -3.59689e-12)
(14.7301 0.125973 -3.01218e-12)
(14.4339 0.120148 -3.05357e-12)
(14.1449 0.114519 -1.90431e-12)
(13.8631 0.109096 -8.28249e-13)
(13.5886 0.103887 -1.92509e-12)
(13.3214 0.0988963 -6.28679e-13)
(13.0614 0.0941246 5.3441e-12)
(12.8085 0.0895698 2.92797e-12)
(12.5627 0.0852259 2.82487e-12)
(12.3237 0.081085 8.53081e-13)
(12.0915 0.0771395 -3.16417e-13)
(11.866 0.0733833 1.15394e-12)
(11.647 0.0698098 1.32359e-12)
(11.4343 0.066412 1.23676e-12)
(11.2278 0.0631833 6.88552e-13)
(11.0273 0.0601175 -8.24326e-12)
(10.8327 0.0572077 -6.35052e-12)
(10.6437 0.0544465 2.0334e-12)
(10.4602 0.0518265 1.92788e-12)
(10.2821 0.0493407 2.97278e-12)
(10.1091 0.046982 3.11782e-12)
(9.94113 0.0447436 4.63966e-12)
(9.77799 0.0426188 3.80306e-12)
(9.61954 0.0406017 2.7849e-12)
(9.46564 0.0386879 5.43402e-14)
(9.31614 0.0368729 1.32583e-12)
(9.1709 0.0351526 1.00313e-11)
(9.02978 0.0335231 5.2185e-12)
(8.89266 0.0319807 7.6409e-14)
(8.75942 0.0305219 2.12771e-12)
(8.62992 0.0291426 1.37414e-12)
(8.50405 0.0278383 6.88461e-13)
(8.38171 0.0266039 -9.39955e-12)
(8.26278 0.0254342 -3.81339e-12)
(8.14717 0.0243238 -2.16226e-11)
(8.03475 0.0232672 -9.45732e-12)
(7.92544 0.0222589 -3.94145e-12)
(7.81911 0.0212941 2.70672e-13)
(7.71568 0.020369 -8.72205e-12)
(7.61503 0.0194806 -2.99198e-12)
(7.51708 0.0186269 -2.64087e-12)
(7.42173 0.0178064 -1.67892e-11)
(7.32889 0.0170183 -7.33123e-12)
(7.23848 0.0162622 -9.87585e-13)
(7.15043 0.0155377 -8.74764e-13)
(7.06465 0.0148447 -3.9178e-12)
(6.98109 0.0141826 1.85213e-13)
(6.89967 0.0135507 -1.39859e-12)
(6.82033 0.0129483 2.4357e-12)
(6.743 0.0123742 2.63142e-13)
(6.66763 0.0118276 -5.9118e-13)
(6.59415 0.0113073 -4.1642e-12)
(6.52251 0.010812 -2.19336e-12)
(6.45265 0.0103405 -1.04552e-12)
(6.38451 0.00989148 8.99624e-12)
(6.31806 0.00946369 -6.07653e-12)
(6.25323 0.00905572 -1.08275e-12)
(6.18999 0.00866689 -1.04408e-11)
(6.12828 0.00829395 1.52231e-11)
(6.06811 0.00793905 5.19075e-12)
(6.00937 0.007588 3.85532e-12)
(5.95229 0.00726338 2.16963e-12)
(5.89636 0.00688273 1.31726e-12)
(5.84326 0.00660995 -2.71562e-12)
(5.78948 0.00593075 2.96752e-14)
(5.74613 0.00593145 4.19994e-12)
(5.68918 0.00341943 -5.05876e-12)
(27.2569 0.0290472 -5.216e-17)
(27.2322 0.0433774 -7.78361e-16)
(27.1942 0.0465305 -3.52105e-15)
(27.1541 0.0481713 -3.54535e-14)
(27.1141 0.0494789 -1.69147e-12)
(27.0732 0.049815 -1.14535e-12)
(27.0314 0.0496957 -8.20545e-13)
(26.9884 0.0495758 -6.58678e-13)
(26.9438 0.0495708 -7.93746e-13)
(26.8971 0.0497529 -8.92548e-13)
(26.8476 0.0501945 -9.59435e-13)
(26.7944 0.0509552 -9.98174e-13)
(26.7364 0.0520925 -1.01087e-12)
(26.6727 0.0536687 -9.63557e-13)
(26.6018 0.0557453 9.42525e-13)
(26.5226 0.0583834 1.01179e-12)
(26.4336 0.0616574 6.12072e-13)
(26.3336 0.0656436 4.60927e-13)
(26.2211 0.0703967 4.39663e-13)
(26.0952 0.0759482 4.88348e-13)
(25.9551 0.0823035 9.63594e-13)
(25.8004 0.0894318 1.13052e-12)
(25.6312 0.0972596 8.04246e-13)
(25.4481 0.105685 2.17186e-13)
(25.2519 0.114585 -5.29319e-14)
(25.044 0.123811 4.38226e-13)
(24.8258 0.133206 6.30861e-13)
(24.599 0.142621 7.59271e-13)
(24.3649 0.151918 8.97385e-13)
(24.1252 0.160988 1.01594e-12)
(23.881 0.169752 1.18706e-12)
(23.6334 0.178154 2.75451e-12)
(23.3832 0.186154 2.99373e-12)
(23.1312 0.193726 2.7613e-12)
(22.8776 0.200854 1.75589e-12)
(22.6228 0.207528 3.26433e-12)
(22.3669 0.213747 2.96243e-12)
(22.1098 0.219503 2.58678e-12)
(21.8513 0.224777 2.13195e-12)
(21.591 0.229535 -8.37658e-13)
(21.3284 0.233728 -2.93236e-13)
(21.063 0.237292 -2.46813e-12)
(20.7942 0.240154 -1.27995e-12)
(20.5212 0.242228 -1.69849e-12)
(20.2437 0.243432 -4.23579e-12)
(19.961 0.243699 -1.8486e-12)
(19.6732 0.242996 -3.02918e-12)
(19.38 0.24132 -2.52429e-12)
(19.0817 0.238697 -2.12884e-12)
(18.7788 0.235185 -1.48459e-12)
(18.4718 0.230867 -1.00572e-12)
(18.1616 0.225837 -5.30519e-13)
(17.8489 0.220194 -2.74046e-13)
(17.5347 0.214034 -4.14466e-13)
(17.2201 0.20746 -1.44366e-12)
(16.906 0.200576 -1.53045e-12)
(16.5934 0.19348 -1.86837e-12)
(16.283 0.186272 -1.32988e-12)
(15.9756 0.179041 -6.97359e-13)
(15.6718 0.171859 5.89612e-12)
(15.3721 0.164779 4.1871e-12)
(15.0771 0.157831 3.05145e-12)
(14.787 0.15104 -3.73338e-12)
(14.5022 0.144417 -2.59174e-12)
(14.2231 0.137971 -3.50121e-12)
(13.9497 0.131714 -6.22915e-13)
(13.6823 0.125663 6.18041e-13)
(13.4211 0.119829 -1.78902e-12)
(13.1661 0.114219 -7.99358e-13)
(12.9173 0.108839 4.45085e-12)
(12.6748 0.103689 3.13092e-12)
(12.4385 0.0987641 2.80218e-12)
(12.2083 0.0940574 1.42352e-12)
(11.9842 0.0895626 4.73079e-13)
(11.7661 0.0852744 1.90719e-12)
(11.554 0.0811868 1.70516e-12)
(11.3477 0.0772932 1.47377e-12)
(11.147 0.0735871 8.72926e-13)
(10.952 0.0700627 -8.30546e-12)
(10.7624 0.066713 -7.58028e-12)
(10.578 0.0635301 4.99246e-13)
(10.3989 0.0605063 2.26138e-12)
(10.2247 0.0576341 3.61576e-12)
(10.0554 0.0549059 2.95613e-12)
(9.89089 0.0523142 3.95205e-12)
(9.73093 0.0498517 3.43927e-12)
(9.57544 0.047512 3.02621e-12)
(9.42429 0.0452902 5.346e-13)
(9.27734 0.0431815 1.94231e-12)
(9.13447 0.0411813 1.0415e-11)
(8.99557 0.0392852 5.37076e-12)
(8.86051 0.0374892 1.13454e-12)
(8.72918 0.0357894 1.87673e-12)
(8.60147 0.0341813 1.35017e-12)
(8.47727 0.0326598 8.13745e-13)
(8.35648 0.031219 -9.54424e-12)
(8.23901 0.0298531 -3.5496e-12)
(8.12475 0.0285558 -2.20519e-11)
(8.01361 0.0273209 -1.07936e-11)
(7.90548 0.0261421 -5.17571e-12)
(7.80026 0.0250138 -1.42169e-12)
(7.69787 0.0239316 -8.68104e-12)
(7.5982 0.0228921 -3.77264e-12)
(7.50116 0.0218928 -3.04983e-12)
(7.40666 0.0209323 -1.79288e-11)
(7.31463 0.0200094 -7.55131e-12)
(7.22497 0.0191236 -1.27782e-13)
(7.13763 0.0182747 -9.31724e-13)
(7.05252 0.0174624 -3.32406e-12)
(6.96959 0.0166861 -4.52784e-13)
(6.88876 0.015945 7.25827e-13)
(6.80997 0.0152382 4.61556e-12)
(6.73317 0.0145645 3.26413e-13)
(6.65828 0.0139229 -7.54436e-13)
(6.58527 0.0133119 -5.22257e-12)
(6.51406 0.0127303 -2.48569e-12)
(6.44461 0.0121764 -1.20201e-12)
(6.37687 0.0116488 8.63246e-12)
(6.31078 0.011146 -6.24347e-12)
(6.2463 0.0106665 -9.15714e-13)
(6.18338 0.0102094 -9.23614e-12)
(6.12199 0.00977085 1.74105e-11)
(6.06211 0.00935347 4.79648e-12)
(6.00365 0.00894054 4.50692e-12)
(5.94683 0.00855862 2.46364e-12)