/*--------------------------------*- C++ -*----------------------------------*\
| =========                 |                                                 |
| \\      /  F ield         | OpenFOAM: The Open Source CFD Toolbox           |
|  \\    /   O peration     | Version:  1.7.x                                 |
|   \\  /    A nd           | Web:      www.OpenFOAM.com                      |
|    \\/     M anipulation  |                                                 |
\*---------------------------------------------------------------------------*/
FoamFile
{
    version     2.0;
    format      ascii;
    class       volScalarField;
    location    "2400";
    object      epsilon;
}
// * * * * * * * * * * * * * * * * * * * * * * * * * * * * * * * * * * * * * //

dimensions      [0 2 -3 0 0 0 0];

internalField   nonuniform List<scalar> 
5460
(
858.653
860.357
861.834
863.151
864.358
865.5
866.611
867.719
868.848
870.017
871.247
872.557
873.971
875.517
877.23
879.159
881.369
883.95
887.026
890.766
895.398
901.23
908.676
918.287
930.792
947.156
968.65
996.934
1034.17
1083.16
1147.45
1231.51
1340.77
1481.59
1660.99
1885.99
2162.56
2494.16
2880.12
3314.39
3785.01
4274.85
4763.39
5229.18
5652.41
6016.84
6311.04
6528.71
6668.25
6732.05
6725.45
6655.82
6531.65
6361.87
6155.24
5920.02
5663.72
5393.06
5113.91
4831.32
4549.53
4271.94
4001.15
3739.12
3487.21
3246.37
3017.28
2800.33
2595.76
2403.58
2223.64
2055.63
1899.13
1753.63
1618.57
1493.36
1377.43
1270.19
1171.1
1079.59
995.166
917.316
845.57
779.477
718.611
662.574
610.993
563.52
519.831
479.628
442.633
408.589
377.26
348.426
321.887
297.455
274.961
254.247
235.167
217.59
201.393
186.465
172.701
160.008
148.299
137.495
127.523
118.316
109.812
101.956
94.6961
87.984
81.7762
76.0327
70.7164
65.7935
61.2328
57.0056
53.0858
49.4495
46.0747
42.9414
40.0312
37.3274
34.8148
32.4788
30.3078
28.2872
26.4163
24.7384
922.413
922.946
923.636
924.441
925.336
926.315
927.376
928.52
929.754
931.089
932.538
934.122
935.871
937.823
940.036
942.588
945.586
949.179
953.566
959.019
965.897
974.679
985.992
1000.66
1019.75
1044.66
1077.17
1119.56
1174.7
1246.15
1338.26
1456.12
1605.46
1792.32
2022.44
2300.38
2628.47
3005.66
3426.67
3881.68
4356.63
4834.41
5296.44
5724.56
6102.79
6418.64
6663.8
6834.3
6930.09
6954.4
6912.91
6812.96
6662.79
6470.93
6245.71
5994.92
5725.67
5444.26
5156.21
4866.29
4578.44
4295.85
4020.96
3755.54
3500.84
3257.71
3026.72
2808.21
2602.34
2409.09
2228.26
2059.51
1902.4
1756.38
1620.89
1495.32
1379.09
1271.61
1172.3
1080.62
996.041
918.066
846.213
780.029
719.087
662.985
611.349
563.828
520.099
479.862
442.837
408.767
377.416
348.563
322.007
297.561
275.054
254.329
235.24
217.655
201.451
186.515
172.746
160.048
148.335
137.527
127.551
118.341
109.835
101.977
94.7144
88.0004
81.791
76.046
70.7284
65.8043
61.2425
57.0144
53.0938
49.4568
46.0813
42.9474
40.0368
37.3325
34.8195
32.4831
30.3118
28.2909
26.4198
24.7417
1057.64
1058.54
1059.6
1060.78
1062.07
1063.49
1065.03
1066.71
1068.54
1070.54
1072.74
1075.2
1077.98
1081.18
1084.93
1089.41
1094.88
1101.66
1110.2
1121.07
1135.02
1153.02
1176.3
1206.44
1245.4
1295.67
1360.27
1442.84
1547.69
1679.64
1843.89
2045.6
2289.3
2578.13
2913.07
3292.15
3710.04
4158.01
4624.35
5095.16
5555.44
5990.18
6385.48
6729.38
7012.61
7228.91
7375.18
7451.31
7459.83
7405.39
7294.22
7133.57
6931.15
6694.78
6431.93
6149.54
5853.88
5550.48
5244.19
4939.15
4638.81
4345.89
4062.48
3790.02
3529.51
3281.59
3046.64
2824.85
2616.27
2420.76
2238.06
2067.75
1909.33
1762.23
1625.83
1499.51
1382.64
1274.62
1174.87
1082.81
997.917
919.673
847.593
781.217
720.111
663.87
612.114
564.492
520.677
480.364
443.276
409.151
377.752
348.858
322.266
297.789
275.255
254.507
235.397
217.794
201.574
186.625
172.843
160.135
148.412
137.596
127.613
118.396
109.885
102.021
94.7543
88.0362
81.8232
76.0749
70.7545
65.8278
61.2638
57.0337
53.1113
49.4727
46.0958
42.9607
40.0489
37.3436
34.8297
32.4926
30.3205
28.299
26.4274
24.7489
1276.83
1278.36
1280.21
1282.29
1284.55
1287.02
1289.69
1292.6
1295.78
1299.31
1303.27
1307.81
1313.12
1319.46
1327.2
1336.82
1348.93
1364.34
1384.1
1409.49
1442.17
1484.19
1538.03
1606.76
1693.97
1803.85
1941.08
2110.64
2317.48
2565.95
2859.16
3198.26
3581.79
4005.28
4461.19
4939.31
5427.37
5911.95
6379.37
6816.53
7211.67
7554.9
7838.56
8057.44
8208.77
8292.12
8309.16
8263.33
8159.54
8003.73
7802.6
7563.19
7292.64
6997.86
6685.33
6360.95
6029.98
5697.01
5366.05
5040.48
4723.07
4416
4120.83
3838.64
3570.06
3315.45
3074.95
2848.56
2636.16
2437.47
2252.11
2079.59
1919.32
1770.67
1632.97
1505.57
1387.79
1279.01
1178.61
1086.01
1000.66
922.025
849.615
782.959
721.615
665.17
613.242
565.471
521.529
481.107
443.924
409.719
378.25
349.295
322.651
298.128
275.555
254.771
235.631
218.002
201.758
186.789
172.989
160.265
148.528
137.7
127.706
118.479
109.959
102.088
94.8141
88.0899
81.8715
76.1184
70.7937
65.8632
61.2958
57.0626
53.1376
49.4966
46.1176
42.9806
40.0671
37.3603
34.8451
32.5067
30.3336
28.3111
26.4387
24.7595
1599.81
1602.95
1606.54
1610.42
1614.58
1619.06
1623.95
1629.33
1635.35
1642.24
1650.29
1659.93
1671.73
1686.42
1704.98
1728.62
1758.89
1797.68
1847.35
1910.7
1991.1
2092.46
2219.21
2376.21
2568.51
2800.98
3077.75
3401.6
3773.19
4190.51
4648.52
5139.23
5652.17
6175.14
6695.14
7199.22
7675.21
8112.15
8500.63
8832.93
9103.14
9307.21
9443.03
9510.41
9510.96
9447.91
9325.82
9150.3
8927.62
8664.48
8367.71
8044.09
7700.13
7341.91
6974.96
6604.2
6233.89
5867.73
5508.85
5159.86
4822.86
4499.42
4190.6
3897.01
3618.95
3356.43
3109.35
2877.47
2660.49
2457.97
2269.41
2094.21
1931.69
1781.15
1641.87
1513.14
1394.24
1284.51
1183.31
1090.04
1004.12
924.999
852.177
785.17
723.527
666.828
614.68
566.723
522.619
482.06
444.758
410.449
378.891
349.859
323.147
298.566
275.942
255.114
235.935
218.271
201.998
187.002
173.179
160.434
148.68
137.835
127.827
118.588
110.056
102.175
94.8926
88.1606
81.9351
76.1757
70.8453
65.9099
61.3379
57.1008
53.1723
49.5281
46.1464
43.0068
40.0912
37.3824
34.8654
32.5255
30.351
28.3272
26.4537
24.7737
2062.35
2067.59
2073.84
2080.74
2088.28
2096.67
2106.12
2116.98
2129.76
2145.15
2164.11
2187.87
2218
2256.45
2305.63
2368.45
2448.33
2549.28
2675.81
2832.87
3025.7
3259.47
3538.85
3867.43
4246.99
4676.89
5153.49
5670.03
6216.77
6781.72
7351.52
7912.58
8452
8958.34
9421.97
9835.22
10192.2
10488.7
10721.7
10889.5
10991.1
11026.9
10998
10906.7
10756.5
10551.9
10298.4
10002.1
9669.36
9307
8921.55
8519.36
8106.35
7687.9
7268.76
6853.03
6444.21
6045.2
5658.41
5285.8
4928.85
4588.6
4265.64
3960.17
3672.13
3401.25
3147.16
2909.4
2687.48
2480.82
2288.77
2110.63
1945.64
1793.02
1651.99
1521.76
1401.61
1290.82
1188.73
1094.69
1008.12
928.451
855.159
787.75
725.764
668.77
616.371
568.197
523.907
483.186
445.745
411.316
379.654
350.531
323.74
299.09
276.406
255.525
236.3
218.596
202.287
187.26
173.409
160.64
148.863
137.999
127.974
118.72
110.175
102.282
94.9885
88.2468
82.0128
76.2458
70.9086
65.967
61.3897
57.1478
53.2149
49.5669
46.1817
43.0392
40.1208
37.4096
34.8905
32.5486
30.3724
28.347
26.4723
24.7912
2715.79
2726.62
2739.23
2753.1
2768.69
2786.74
2808.12
2834.09
2866.33
2906.99
2958.75
3024.89
3109.28
3216.43
3351.4
3519.7
3727.1
3979.27
4281.32
4637.2
5049.01
5516.32
6035.6
6599.99
7199.42
7821.16
8450.8
9073.37
9674.5
10241.3
10763.3
11232.1
11642.2
11990
12274
12494
12650.7
12745.3
12779.5
12755
12673.5
12537.2
12348.2
12109.3
11824
11496.3
11131.1
10733.8
10310.1
9866.07
9407.61
8940.45
8469.92
8000.8
7537.27
7082.85
6640.45
6212.45
5800.72
5406.74
5031.54
4675.73
4339.54
4022.85
3725.29
3446.37
3185.47
2941.96
2715.18
2504.4
2308.87
2127.77
1960.28
1805.54
1662.7
1530.94
1409.49
1297.6
1194.56
1099.72
1012.47
932.213
858.42
790.581
728.226
670.915
618.243
569.833
525.34
484.444
446.851
412.289
380.512
351.289
324.411
299.684
276.933
255.993
236.717
218.967
202.618
187.555
173.673
160.876
149.075
138.189
128.144
118.873
110.313
102.406
95.0999
88.3472
82.1033
76.3275
70.9825
66.0339
61.4502
57.2027
53.2649
49.6124
46.2233
43.0772
40.1557
37.4417
34.92
32.5759
30.3977
28.3704
26.4943
24.8119
3672.72
3694.82
3721.94
3753.59
3791.58
3838.38
3897
3971.35
4066.19
4187.11
4340.42
4532.94
4771.69
5063.44
5414.07
5827.78
6306.31
6848.14
7448
8096.67
8781.39
9486.63
10195.4
10890.4
11555.6
12177.2
12744
13248
13684
14049.4
14343.7
14568.4
14726
14820
14854.3
14833
14759.8
14638.2
14471.1
14261.2
14010.6
13721.1
13394.5
13032.8
12638.4
12214.2
11763.7
11290.9
10800.3
10296.9
9785.68
9271.55
8759.23
8252.98
7756.54
7273.03
6805.01
6354.53
5923.16
5512.07
5122.03
4753.38
4406.11
4079.88
3774.15
3488.22
3221.33
2972.7
2741.55
2527.03
2328.3
2144.48
1974.64
1817.89
1673.34
1540.12
1417.42
1304.45
1200.5
1104.87
1016.93
936.096
861.801
793.53
730.801
673.168
620.217
571.566
526.863
485.785
448.033
413.334
381.436
352.108
325.137
300.33
277.507
256.505
237.173
219.374
202.982
187.881
173.965
161.138
149.31
138.4
128.334
119.044
110.466
102.544
95.225
88.4601
82.2053
76.4197
71.0659
66.1094
61.5188
57.265
53.3216
49.6642
46.2706
43.1206
40.1955
37.4784
34.9538
32.6071
30.4266
28.3973
26.5195
24.8357
5156.96
5221.06
5299.35
5393.89
5511.51
5659.97
5847.9
6084.85
6380.66
6744.45
7183.66
7702.83
8302.42
8977.82
9718.92
10510.3
11332.1
12162.2
12977.5
13756.8
14482
15138.9
15718.2
16214.3
16625.5
16952.7
17198.9
17368.4
17466.1
17497.6
17468.5
17384.6
17251.4
17074.3
16857.9
16606.6
16323.9
16012.6
15675.1
15312.9
14927.1
14518.7
14088.2
13636.6
13164.8
12674.3
12167.2
11646.1
11114
10574.7
10032.2
9490.48
8953.68
8425.55
7909.45
7408.26
6924.32
6459.55
6015.37
5592.86
5192.65
4815
4459.78
4126.57
3814.72
3523.45
3251.91
2999.26
2764.6
2547.05
2345.69
2159.57
1987.75
1829.28
1683.24
1548.73
1424.91
1310.98
1206.19
1109.84
1021.28
939.9
865.134
796.454
733.369
675.427
622.207
573.321
528.414
487.157
449.248
414.412
382.393
352.959
325.896
301.006
278.111
257.044
237.656
219.806
203.369
188.229
174.278
161.419
149.563
138.628
128.54
119.229
110.634
102.695
95.3615
88.5836
82.317
76.5208
71.1575
66.1926
61.5944
57.3338
53.3843
49.7215
46.3231
43.1687
40.2398
37.5191
34.9915
32.642
30.459
28.4274
26.5478
24.8624
7864.9
8088.1
8360.96
8692.16
9099.88
9599.25
10201.2
10911.1
11726
12633.8
13612.8
14633.2
15660.3
16657.9
17592.9
18438.4
19175.5
19794.2
20292.1
20672.7
20943.5
21113.9
21194.4
21195.2
21126.3
20996.3
20813.3
20584.1
20314.7
20010.4
19676.1
19316.2
18934.7
18535
18120.1
17692.3
17253.4
16804.5
16346.3
15879.1
15402.8
14916.9
14421.1
13915.1
13398.8
12872.5
12337
11793.5
11244.1
10691.2
10137.8
9587.3
9042.96
8508.13
7985.86
7478.83
6989.31
6519.14
6069.78
5642.3
5237.38
4855.28
4495.92
4158.88
3843.53
3549.08
3274.69
3019.46
2782.5
2562.89
2359.69
2171.93
1998.66
1838.89
1691.71
1556.19
1431.48
1316.77
1211.3
1114.35
1025.26
943.415
868.241
799.203
735.804
677.584
624.121
575.021
529.925
488.502
450.447
415.482
383.349
353.814
326.66
301.691
278.725
257.596
238.151
220.252
203.77
188.59
174.603
161.712
149.828
138.868
128.756
119.425
110.811
102.856
95.5069
88.7153
82.4365
76.6293
71.256
66.2821
61.6759
57.4081
53.4521
49.7836
46.38
43.221
40.288
37.5637
35.0327
32.6802
30.4945
28.4605
26.579
24.8918
14447.6
15442.8
16454.9
17530.3
18703.9
19963.8
21267.1
22555.3
23767.8
24849.1
25756.8
26466.6
26971.9
27281.6
27415.4
27398.6
27258.3
27019.7
26704.6
26330.5
25911.4
25458.1
24979.1
24481.1
23969.2
23447.1
22917.8
22383.1
21844.6
21303.8
20761.8
20220.1
19679.7
19141.7
18606.8
18075.2
17547
17022
16499.4
15978.3
15457.8
14936.5
14413.3
13887.2
13357.4
12823.3
12284.9
11742.5
11197.1
10650.4
10104.4
9561.71
9025.15
8497.59
7981.77
7480.22
6995.15
6528.43
6081.62
5655.86
5251.98
4870.35
4511.01
4173.68
3857.79
3562.66
3287.49
3031.43
2793.62
2573.15
2369.1
2180.53
2006.47
1845.97
1698.1
1561.96
1436.67
1321.44
1215.48
1118.1
1028.63
946.434
870.946
801.626
737.975
679.53
625.865
576.585
531.329
489.762
451.58
416.5
384.265
354.638
327.403
302.361
279.329
258.141
238.644
220.697
204.173
188.954
174.933
162.012
150.099
139.114
128.979
119.628
110.995
103.023
95.6585
88.8531
82.5617
76.7432
71.3597
66.3766
61.7621
57.4869
53.5242
49.8497
46.4408
43.277
40.3396
37.6114
35.077
32.7213
30.5328
28.4962
26.6127
24.9237
41375.2
40620.3
40265.3
40134.2
40137.7
40120.8
39958.9
39597.9
39043.7
38315.3
37449.3
36489.1
35475
34439.7
33406.5
32392.4
31408.3
30459.1
29545.8
28667.4
27821.9
27007.4
26222
25463.8
24731.1
24021.6
23332.8
22662.4
22008.6
21369.9
20745.5
20134.7
19537
18951.8
18378.6
17816.6
17265.1
16722.8
16188.6
15661.1
15138.6
14619.8
14103
13587
13070.6
12553
12033.4
11511.8
10988.5
10464.4
9941.08
9420.4
8904.71
8396.46
7898.16
7412.19
6940.72
6485.69
6048.73
5631.17
5233.98
4857.75
4502.7
4168.72
3855.44
3562.3
3288.61
3033.64
2796.59
2576.63
2372.88
2184.44
2010.4
1849.83
1701.83
1565.51
1440.03
1324.59
1218.42
1120.83
1031.14
948.75
873.072
803.573
739.754
681.153
627.344
577.933
532.555
490.878
452.594
417.423
385.104
355.401
328.097
302.992
279.903
258.663
239.118
221.129
204.566
189.312
175.259
162.308
150.369
139.36
129.204
119.832
111.181
103.193
95.8133
88.9942
82.6904
76.8606
71.4669
66.4746
61.8517
57.5689
53.5995
49.9189
46.5045
43.3359
40.3941
37.662
35.1239
32.765
30.5736
28.5343
26.6487
24.9579
10677.2
18447.1
26095.1
32041.4
36037.9
38306.4
39261
39263.8
38601.7
37612.2
36488
35328.6
34181.8
33069
31998.7
30976.2
30002
29071.4
28180.3
27325.8
26505.8
25718.2
24961.5
24234.3
23534
22857.6
22202
21564.9
20944.1
20338.6
19747.5
19170.3
18606.2
18054.6
17514.8
16986.3
16468.3
15959.8
15459.5
14966
14478.1
13994.2
13513
13033.2
12553.8
12073.7
11592
11108.6
10623.3
10136.6
9649.63
9163.73
8680.83
8203.06
7732.66
7271.88
6822.86
6387.58
5967.77
5564.94
5180.26
4814.56
4468.28
4141.57
3834.27
3546.02
3276.33
3024.58
2790.12
2572.2
2370.05
2182.85
2009.75
1849.88
1702.39
1566.44
1441.21
1325.93
1219.87
1122.32
1032.64
950.231
874.512
804.956
741.072
682.4
628.516
579.03
533.578
491.83
453.477
418.24
385.859
356.098
328.739
303.583
280.447
259.163
239.578
221.551
204.953
189.667
175.585
162.607
150.643
139.611
129.434
120.043
111.374
103.369
95.975
89.1423
82.826
76.9847
71.5806
66.5788
61.9473
57.6568
53.6804
49.9935
46.5735
43.3997
40.4533
37.717
35.1752
32.8128
30.6184
28.5763
26.6885
24.9957
197.884
717.441
1813.28
3580.73
5998.89
8910.17
12015.5
15026.3
17689.5
19805.9
21371.3
22461.2
23170.1
23584
23773.1
23772.6
23619.4
23364.7
23041.9
22673.3
22274.1
21854.7
21422.2
20981.7
20535.3
20084.4
19630.4
19174.5
18717.8
18261.7
17807.4
17355.6
16906.8
16461.7
16020.5
15583.9
15151.8
14724.1
14300.1
13879
13459.9
13042.1
12624.6
12206.5
11787
11365.3
10940.8
10513.1
10082
9647.88
9211.36
8773.6
8336.13
7900.76
7469.51
7044.48
6627.75
6221.31
5827.02
5446.52
5081.21
4732.15
4400.09
4085.44
3788.32
3508.64
3246.11
3000.33
2770.81
2556.96
2358.13
2173.63
2002.71
1844.59
1698.5
1563.65
1439.3
1324.71
1219.18
1122.05
1032.69
950.507
874.958
805.523
741.718
683.096
629.239
579.761
534.305
492.542
454.167
418.903
386.492
356.699
329.307
304.118
280.949
259.632
240.016
221.959
205.333
190.02
175.912
162.91
150.923
139.87
129.673
120.263
111.577
103.557
96.1478
89.3013
82.9723
77.1194
71.7046
66.6929
62.0525
57.7538
53.77
50.0763
46.6502
43.471
40.5196
37.7788
35.233
32.8669
30.6691
28.6239
26.7338
25.0388
2.56904
9.04773
32.9866
103.901
277.094
632.504
1251.72
2189.03
3446.16
4950.7
6585.58
8226.33
9772.76
11161.6
12364.4
13385.1
14226.3
14888.8
15391.4
15757.6
16009.7
16166.7
16240.3
16236.5
16174.6
16066.8
15921.7
15745.5
15543.2
15318.7
15075.2
14815.7
14542.9
14259.2
13966.9
13668
13363.7
13054.8
12741.7
12424.4
12103.1
11777.7
11447.9
11113.5
10774
10429.1
10078.5
9722.11
9359.82
8991.85
8618.72
8241.38
7861.09
7479.4
7098.1
6719.13
6344.5
5976.17
5616.06
5265.95
4927.41
4601.77
4290.03
3992.93
3710.88
3444.09
3192.53
2956.06
2734.39
2527.13
2333.81
2153.88
1986.75
1831.77
1688.25
1555.52
1432.89
1319.71
1215.32
1119.12
1030.51
948.927
873.856
804.799
741.292
682.901
629.223
579.88
534.525
492.836
454.514
419.284
386.895
357.113
329.723
304.53
281.352
260.024
240.393
222.32
205.677
190.346
176.22
163.2
151.196
140.125
129.912
120.486
111.785
103.75
96.3271
89.4677
83.1266
77.2623
71.8369
66.8155
62.166
57.8591
53.8677
50.1671
46.7347
43.5497
40.5932
37.8476
35.2974
32.9274
30.7261
28.6775
26.7848
25.0875
0.792593
0.688681
0.827462
1.58962
4.16627
12.3021
35.7333
94.6542
222.199
460.23
848.193
1409.18
2139.89
3009.18
3966.62
4959.98
5942.81
6876.15
7734.62
8504.89
9182.32
9767.96
10268.7
10691.9
11036.6
11308.2
11514.2
11661.8
11757.5
11801.2
11800.8
11764.5
11697.7
11605.1
11490.2
11355.9
11204.4
11037.7
10857.3
10664.5
10460.2
10245.3
10020.1
9784.88
9539.91
9285.38
9021.46
8748.25
8465.89
8174.69
7875.17
7568.14
7254.68
6936.13
6614.07
6290.27
5966.6
5644.97
5327.29
5015.42
4711.06
4415.74
4130.72
3857.02
3595.36
3346.25
3109.97
2886.63
2676.19
2478.51
2293.33
2120.28
1958.94
1808.81
1669.36
1540.03
1420.23
1309.41
1206.98
1112.39
1025.11
944.632
870.465
802.148
739.244
681.343
628.062
579.039
533.941
492.457
454.298
419.197
386.907
357.201
329.87
304.719
281.572
260.265
240.647
222.581
205.939
190.606
176.476
163.449
151.436
140.356
130.132
120.696
111.984
103.938
96.5042
89.6341
83.2825
77.4083
71.9733
66.9429
62.285
57.9702
53.9715
50.2642
46.8255
43.6348
40.673
37.9226
35.368
32.9938
30.7888
28.7368
26.8416
25.1418
0.769937
0.599556
0.47526
0.389523
0.347141
0.385447
0.626126
1.43545
3.9453
11.3005
30.7673
75.9003
166.96
327.934
580.338
936.769
1396.54
1944.46
2554.79
3198.12
3847.63
4482.31
5088.29
5657.29
6181.26
6655.24
7077.15
7446.9
7765.99
8039.86
8267.99
8451.47
8593.59
8698.11
8768.74
8804.47
8810.89
8792.3
8751.57
8690.8
8611.44
8514.63
8401.45
8272.86
8129.66
7972.58
7802.15
7618.77
7422.83
7214.8
6995.28
6765.01
6524.94
6276.21
6020.22
5758.56
5492.92
5225.09
4956.92
4690.25
4426.85
4168.36
3916.25
3671.77
3435.92
3209.48
2993.03
2786.96
2591.51
2406.77
2232.7
2069.19
1915.98
1772.78
1639.2
1514.84
1399.26
1291.97
1192.53
1100.44
1015.27
936.546
863.846
796.751
734.864
677.807
625.223
576.777
532.155
491.061
453.223
418.384
386.307
356.775
329.583
304.545
281.487
260.25
240.687
222.663
206.054
190.745
176.631
163.615
151.609
140.532
130.309
120.871
112.155
104.104
96.6647
89.7881
83.4297
77.5484
72.1063
67.0688
62.404
58.0825
54.0775
50.3642
46.9199
43.724
40.7573
38.0022
35.4433
33.0652
30.8566
28.8011
26.9033
25.2012
0.767189
0.597567
0.472314
0.378622
0.307731
0.253854
0.213996
0.189125
0.189595
0.25105
0.478505
1.18885
3.31849
9.28932
24.2918
57.4117
121.631
231.886
401.424
637.918
941.038
1302.39
1708.03
2142.19
2589.48
3036.63
3473.04
3890.66
4283.76
4649.88
4986.15
5290.3
5561.39
5799.54
6005.83
6184.02
6333.07
6453.5
6546.87
6614.84
6656.89
6674.48
6670.59
6646.99
6604.9
6545.07
6468.26
6375.21
6266.59
6143.06
6005.28
5853.93
5689.83
5514.02
5327.69
5132.22
4929.07
4719.88
4506.34
4290.22
4073.23
3857.06
3643.28
3433.29
3228.3
3029.34
2837.23
2652.63
2476.03
2307.76
2148.04
1996.96
1854.51
1720.56
1594.95
1477.4
1367.64
1265.33
1170.12
1081.63
999.507
923.37
852.855
787.603
727.268
671.516
620.029
572.503
528.65
488.199
450.898
416.506
384.801
355.577
328.641
303.814
280.93
259.835
240.389
222.46
205.927
190.679
176.614
163.637
151.662
140.608
130.402
120.976
112.269
104.224
96.787
89.9113
83.5522
77.6689
72.224
67.1831
62.5143
58.1887
54.1794
50.4618
47.0133
43.8131
40.8424
38.0835
35.521
33.1393
30.9274
28.8688
26.9689
25.2646
0.766073
0.597132
0.472856
0.37977
0.308964
0.254316
0.211586
0.177808
0.150942
0.129779
0.114231
0.106696
0.116494
0.172065
0.356297
0.918493
2.57156
7.08169
18.0869
41.7513
86.653
162.492
277.868
438.053
643.538
889.872
1168.84
1470.46
1784.87
2103.89
2420.64
2729.38
3025.5
3305.55
3567.18
3809.89
4032.27
4233.13
4411.92
4568.63
4704.79
4820.24
4914.14
4986.84
5039.01
5069.02
5078.94
5070.41
5044.39
5001.45
4942.11
4867.1
4777.19
4673.28
4556.39
4427.61
4288.2
4139.55
3983.18
3820.65
3653.56
3483.52
3312.1
3140.76
2970.84
2803.5
2639.78
2480.53
2326.45
2178.12
2035.98
1900.32
1771.36
1649.17
1533.77
1425.08
1322.97
1227.26
1137.72
1054.12
976.175
903.617
836.159
773.514
715.4
661.536
611.652
565.484
522.782
483.305
446.825
413.127
382.007
353.275
326.752
302.271
279.678
258.826
239.583
221.822
205.43
190.298
176.329
163.431
151.52
140.519
130.355
120.964
112.284
104.259
96.8393
89.976
83.626
77.7492
72.3085
67.2701
62.6026
58.277
54.2671
50.5482
47.098
43.8958
40.9229
38.1617
35.5967
33.2125
30.9983
28.9374
27.036
25.3301
0.765547
0.596977
0.473324
0.38073
0.310209
0.25568
0.212936
0.179017
0.1518
0.129737
0.111692
0.0968378
0.0846123
0.0747842
0.0677532
0.0656122
0.0753533
0.11767
0.253176
0.663725
1.85966
5.0759
12.8037
29.2088
60.0674
111.959
190.836
300.522
441.749
612.136
806.868
1019.82
1244.67
1475.69
1708.01
1937.91
2162.14
2377.87
2582.77
2775.07
2953.91
3118.36
3267.17
3399.48
3514.92
3614.79
3697.7
3763.02
3810.78
3839.87
3850.72
3844.84
3823.06
3785.98
3734.3
3668.94
3590.95
3501.47
3401.73
3293.05
3176.82
3054.5
2927.55
2797.37
2665.31
2532.61
2400.38
2269.63
2141.23
2015.9
1894.28
1776.86
1664.04
1556.09
1453.2
1355.47
1262.95
1175.59
1093.31
1016.01
943.527
875.687
812.301
753.163
698.065
646.79
599.126
554.859
513.782
475.693
440.398
407.709
377.448
349.447
323.545
299.591
277.444
256.971
238.047
220.557
204.392
189.452
175.645
162.882
151.084
140.177
130.093
120.767
112.141
104.161
96.7769
89.9431
83.617
77.7593
72.3338
67.3072
62.6489
58.3303
54.3255
50.6104
47.1627
43.9622
40.9901
38.2292
35.664
33.2793
31.0644
29.0024
27.1009
25.3944
0.765277
0.596915
0.473646
0.381404
0.311121
0.25672
0.214021
0.180086
0.152812
0.130665
0.112512
0.0975046
0.0849998
0.0745061
0.065647
0.0581426
0.0518159
0.0466559
0.0430396
0.0424613
0.0496837
0.0786809
0.170489
0.447903
1.2533
3.41121
8.58392
19.5604
40.2395
75.1453
128.529
203.384
300.752
419.567
557.005
709.254
872.222
1042.01
1215.09
1388.37
1559.3
1725.68
1885.45
2036.86
2178.5
2309.8
2429.64
2536.89
2630.81
2711.78
2779.06
2831.52
2868.89
2890.02
2895.53
2886.72
2864.45
2829.44
2782.6
2725
2657.8
2582.21
2499.48
2410.87
2317.63
2220.96
2121.99
2021.77
1921.22
1821.2
1722.45
1625.62
1531.24
1439.75
1351.5
1266.76
1185.7
1108.45
1035.07
965.556
899.89
838.004
779.804
725.179
673.997
626.118
581.391
539.663
500.777
464.577
430.907
399.616
370.557
343.586
318.568
295.371
273.871
253.952
235.501
218.415
202.594
187.948
174.389
161.839
150.221
139.466
129.511
120.294
111.759
103.857
96.5379
89.7584
83.4775
77.6574
72.2631
67.2623
62.625
58.3238
54.333
50.6293
47.1908
43.9976
41.0313
38.2748
35.7131
33.3309
31.118
29.0574
27.1579
25.4524
0.765131
0.59689
0.47386
0.381865
0.31177
0.257489
0.21485
0.180928
0.153632
0.131442
0.113233
0.0981628
0.0855916
0.075029
0.0660945
0.0584901
0.0519808
0.0463802
0.0415414
0.0373545
0.0337569
0.0307768
0.0286746
0.028397
0.0329127
0.0509243
0.10799
0.280503
0.782218
2.13268
5.3954
12.3936
25.7528
48.643
84.2176
134.939
202.05
285.352
383.322
493.493
612.996
738.978
868.776
999.96
1130.34
1258.15
1381.73
1499.54
1610.24
1713.03
1806.96
1890.84
1963.81
2026.06
2076.71
2114.85
2140.32
2152.08
2151.32
2139.14
2116.41
2083.91
2042.64
1993.67
1938.08
1876.94
1811.27
1742.07
1670.27
1596.73
1522.27
1447.59
1373.32
1300.02
1228.15
1158.1
1090.18
1024.65
961.673
901.392
843.888
789.2
737.337
688.277
641.975
598.366
557.37
518.895
482.842
449.105
417.575
388.14
360.689
335.11
311.295
289.137
268.535
249.389
231.604
215.092
199.765
185.542
172.348
160.11
148.76
138.235
128.475
119.426
111.035
103.255
96.0401
89.3491
83.1433
77.3868
72.0463
67.0909
62.492
58.2229
54.2592
50.5781
47.1586
43.9811
41.028
38.2824
35.7297
33.3548
31.1482
29.0925
27.1983
25.4965
0.765047
0.59688
0.474002
0.382176
0.312227
0.258049
0.215473
0.181579
0.154284
0.132075
0.113834
0.0987238
0.0861079
0.0754989
0.066518
0.0588685
0.0523157
0.0466724
0.0417881
0.0375412
0.0338328
0.0305821
0.0277242
0.02521
0.0230137
0.0211585
0.0197972
0.0194704
0.0218664
0.0319375
0.0641633
0.161821
0.447938
1.23006
3.16044
7.40376
15.7173
30.3447
53.6827
87.7985
133.981
192.488
262.547
342.563
430.467
524.1
621.409
720.496
819.609
917.232
1011.97
1102.44
1187.41
1266.08
1337.49
1400.6
1454.67
1500.07
1535.74
1561.2
1576.4
1580.83
1575.8
1562.26
1541.01
1512.83
1478.61
1439.2
1395.47
1348.23
1298.24
1246.21
1192.82
1138.65
1084.25
1030.08
976.539
923.976
872.672
822.856
774.709
728.365
683.925
641.453
600.985
562.532
526.084
491.614
459.08
428.433
399.609
372.543
347.161
323.388
301.148
280.362
260.953
242.844
225.961
210.23
195.581
181.945
169.26
157.461
146.492
136.295
126.819
118.015
109.835
102.236
95.1774
88.6207
82.5303
76.8727
71.617
66.7341
62.1972
57.9812
54.0627
50.4202
47.0335
43.8841
40.9547
38.2293
35.6937
33.3334
31.1391
29.0939
27.2097
25.5156
0.764997
0.596876
0.474096
0.382388
0.312546
0.258454
0.215936
0.182076
0.154794
0.132582
0.114326
0.0991917
0.086547
0.0759061
0.066892
0.0592092
0.0526237
0.0469491
0.0420352
0.0377605
0.0340258
0.0307498
0.0278651
0.0253162
0.0230564
0.0210469
0.0192561
0.0176593
0.0162435
0.0150205
0.0140686
0.0136647
0.0146806
0.019694
0.0362319
0.0868455
0.237312
0.659412
1.73725
4.19638
9.1962
18.3093
33.3354
55.97
87.4355
128.227
178.045
235.898
300.33
369.701
442.386
516.842
591.609
665.396
736.973
805.137
868.82
927.398
979.983
1025.78
1064.38
1096.03
1119.91
1135.89
1143.93
1144.16
1137.6
1125.02
1107.07
1084.39
1057.66
1027.54
994.648
959.58
922.873
885.019
846.463
807.601
768.78
730.298
692.407
655.317
619.203
584.202
550.423
517.943
486.817
457.08
428.748
401.823
376.292
352.132
329.313
307.797
287.541
268.498
250.618
233.849
218.138
203.432
189.679
176.826
164.823
153.62
143.169
133.424
124.341
115.877
107.994
100.653
93.8174
87.4544
81.5318
76.0196
70.8896
66.1155
61.6725
57.5376
53.6892
50.107
46.7724
43.6678
40.777
38.0848
35.5778
33.2421
31.0691
29.0422
27.175
25.4942
0.764966
0.596876
0.474161
0.382533
0.312771
0.258746
0.216278
0.182452
0.155188
0.132982
0.114722
0.0995755
0.0869137
0.076252
0.0672151
0.0595084
0.0528988
0.0472004
0.0422634
0.0379667
0.0342112
0.0309157
0.0280128
0.0254469
0.0231712
0.0211466
0.01934
0.0177235
0.0162732
0.0149691
0.0137941
0.0127347
0.0117832
0.0109432
0.0102501
0.00983319
0.0101071
0.0123203
0.020139
0.0445723
0.118611
0.332893
0.902921
2.26286
5.15228
10.6409
20.0418
34.7012
55.7206
83.7161
118.702
160.111
206.925
257.884
311.659
366.95
422.534
477.349
530.364
580.595
627.219
669.73
707.427
739.784
766.706
788.216
803.899
813.797
817.888
816.495
810.363
800.073
786.125
769.005
749.205
727.198
703.425
678.289
652.154
625.349
598.166
570.863
543.664
516.762
490.315
464.458
439.299
414.926
391.404
368.784
347.099
326.368
306.601
287.797
269.947
253.036
237.041
221.939
207.699
194.29
181.679
169.832
158.712
148.285
138.515
129.367
120.807
112.803
105.321
98.3303
91.8019
85.7071
80.0185
74.7106
69.7587
65.1399
60.8322
56.8151
53.0692
49.5762
46.3191
43.282
40.4498
37.8085
35.3458
33.0485
30.9091
28.9114
27.0706
25.411
0.764947
0.596877
0.474205
0.382633
0.312929
0.258955
0.21653
0.182734
0.15549
0.133294
0.115036
0.0998855
0.0872147
0.0765406
0.0674888
0.0597656
0.0531388
0.0474229
0.0424686
0.0381549
0.0343831
0.0310719
0.0281543
0.0255744
0.0232857
0.021249
0.0194311
0.0178041
0.0163441
0.0150307
0.0138462
0.0127758
0.0118063
0.0109266
0.010127
0.00939958
0.00873905
0.0081454
0.00763277
0.0072569
0.00720227
0.00803814
0.0114544
0.0225181
0.05669
0.15859
0.441538
1.15075
2.73514
5.89222
11.5444
20.7216
34.364
53.1134
77.1689
106.25
139.663
176.449
215.539
255.856
296.401
336.315
374.775
411.032
444.511
474.791
501.402
524.027
542.714
557.414
567.923
574.321
576.631
575.132
570.367
562.765
552.695
540.499
526.519
511.081
494.483
476.998
458.869
440.314
421.524
402.669
383.896
365.33
347.077
329.225
311.843
294.989
278.709
263.034
247.987
233.582
219.826
206.719
194.256
182.427
171.219
160.616
150.599
141.148
132.241
123.856
115.97
108.56
101.602
95.0732
88.9512
83.2139
77.8398
72.8082
68.0991
63.6934
59.5727
55.7197
52.1175
48.7506
45.604
42.6636
39.9161
37.349
34.9512
32.7108
30.6213
28.6673
26.8657
25.2382
0.764935
0.596879
0.474237
0.382704
0.313041
0.259107
0.216714
0.182944
0.155719
0.133535
0.115282
0.100133
0.0874583
0.0767776
0.0677167
0.0599829
0.0533443
0.0476159
0.0426489
0.0383225
0.0345381
0.0312148
0.0282854
0.0256944
0.0233951
0.0213484
0.0195211
0.0178853
0.0164171
0.0150959
0.0139044
0.0128274
0.0118517
0.0109661
0.0101608
0.00942698
0.00875725
0.00814499
0.00758445
0.00707077
0.00660028
0.00617165
0.00578962
0.00547635
0.00530828
0.00552812
0.00686836
0.0115203
0.0262053
0.0711491
0.201355
0.545597
1.35932
3.07179
6.29656
11.7773
20.2632
32.3463
48.3197
68.1068
91.2782
117.148
144.888
173.638
202.603
231.097
258.5
284.273
308.027
329.444
348.209
364.119
377.239
387.546
394.923
399.444
401.175
400.261
397.098
391.995
385.217
376.994
367.556
357.123
345.896
334.059
321.774
309.186
296.425
283.602
270.816
258.151
245.679
233.459
221.54
209.961
198.753
187.94
177.539
167.561
158.011
148.891
140.2
131.932
124.08
116.635
109.585
102.918
96.6197
90.6767
85.0743
79.7974
74.831
70.1602
65.7702
61.6466
57.7752
54.1423
50.7345
47.5391
44.5437
41.7366
39.1067
36.6433
34.3368
32.1769
30.1583
28.267
26.5213
24.9399
0.764927
0.596881
0.474259
0.382754
0.313121
0.259216
0.216849
0.183101
0.155892
0.133719
0.115474
0.100327
0.087653
0.0769695
0.0679037
0.0601633
0.053517
0.0477802
0.0428042
0.0384685
0.0346749
0.0313423
0.0284039
0.0258042
0.0234964
0.0214416
0.0196067
0.0179636
0.0164885
0.0151609
0.0139634
0.0128806
0.0118997
0.0110092
0.0101992
0.00946114
0.00878741
0.00817137
0.0076072
0.00708972
0.00661437
0.00617712
0.0057744
0.00540312
0.00506075
0.00474576
0.00445912
0.00420869
0.0040236
0.00399961
0.00443294
0.00621289
0.0120517
0.0303192
0.0852603
0.23844
0.622907
1.48186
3.19245
6.25167
11.2104
18.5646
28.6368
41.4921
56.9194
74.478
93.5757
113.563
133.825
153.826
173.102
191.262
208.033
223.189
236.515
247.869
257.275
264.773
270.272
273.818
275.507
275.343
273.614
270.54
266.306
261.072
254.989
248.203
240.848
233.05
224.917
216.549
208.033
199.446
190.854
182.315
173.88
165.59
157.48
149.578
141.906
134.484
127.324
120.435
113.823
107.492
101.442