/*--------------------------------*- C++ -*----------------------------------*\
| =========                 |                                                 |
| \\      /  F ield         | OpenFOAM: The Open Source CFD Toolbox           |
|  \\    /   O peration     | Version:  1.7.x                                 |
|   \\  /    A nd           | Web:      www.OpenFOAM.com                      |
|    \\/     M anipulation  |                                                 |
\*---------------------------------------------------------------------------*/
FoamFile
{
    version     2.0;
    format      ascii;
    class       surfaceScalarField;
    location    "2400";
    object      phi;
}
// * * * * * * * * * * * * * * * * * * * * * * * * * * * * * * * * * * * * * //

dimensions      [1 0 -1 0 0 0 0];

internalField   nonuniform List<scalar> 
10748
(
2.79291e-07
1.82768e-10
2.79032e-07
2.59741e-10
2.78717e-07
3.14537e-10
2.78377e-07
3.40034e-10
2.78023e-07
3.53808e-10
2.7766e-07
3.62903e-10
2.77292e-07
3.68523e-10
2.76919e-07
3.72625e-10
2.76543e-07
3.76549e-10
2.76162e-07
3.80743e-10
2.75776e-07
3.85403e-10
2.75386e-07
3.90644e-10
2.74989e-07
3.96513e-10
2.74586e-07
4.03031e-10
2.74176e-07
4.10206e-10
2.73758e-07
4.18067e-10
2.73331e-07
4.26737e-10
2.72895e-07
4.3644e-10
2.72447e-07
4.47439e-10
2.71987e-07
4.60054e-10
2.71513e-07
4.74718e-10
2.71021e-07
4.92e-10
2.70508e-07
5.12636e-10
2.6997e-07
5.37643e-10
2.69402e-07
5.68392e-10
2.68795e-07
6.06604e-10
2.68141e-07
6.54432e-10
2.67426e-07
7.1457e-10
2.66636e-07
7.90307e-10
2.6575e-07
8.85601e-10
2.64745e-07
1.00507e-09
2.63592e-07
1.15373e-09
2.62255e-07
1.33657e-09
2.60697e-07
1.55781e-09
2.58877e-07
1.81985e-09
2.56755e-07
2.12209e-09
2.54296e-07
2.45978e-09
2.51472e-07
2.82344e-09
2.48273e-07
3.19927e-09
2.44702e-07
3.57085e-09
2.4078e-07
3.92146e-09
2.36544e-07
4.23656e-09
2.32038e-07
4.50548e-09
2.27316e-07
4.72213e-09
2.22432e-07
4.88476e-09
2.17436e-07
4.99517e-09
2.12379e-07
5.05769e-09
2.07301e-07
5.07801e-09
2.02238e-07
5.06233e-09
1.97222e-07
5.0168e-09
1.92274e-07
4.94719e-09
1.87416e-07
4.85869e-09
1.8266e-07
4.75573e-09
1.78018e-07
4.64207e-09
1.73497e-07
4.52082e-09
1.69103e-07
4.39449e-09
1.64838e-07
4.265e-09
1.60704e-07
4.13391e-09
1.56701e-07
4.00258e-09
1.52829e-07
3.87209e-09
1.49086e-07
3.74334e-09
1.45469e-07
3.61701e-09
1.41975e-07
3.49364e-09
1.38602e-07
3.37348e-09
1.35345e-07
3.25663e-09
1.32202e-07
3.14318e-09
1.29169e-07
3.0332e-09
1.26242e-07
2.92678e-09
1.23418e-07
2.824e-09
1.20693e-07
2.72495e-09
1.18063e-07
2.62967e-09
1.15525e-07
2.53809e-09
1.13075e-07
2.45009e-09
1.10709e-07
2.36554e-09
1.08425e-07
2.28431e-09
1.06219e-07
2.20627e-09
1.04088e-07
2.13129e-09
1.02028e-07
2.05927e-09
1.00038e-07
1.99014e-09
9.81143e-08
1.92379e-09
9.62542e-08
1.8601e-09
9.44553e-08
1.79896e-09
9.2715e-08
1.74027e-09
9.10311e-08
1.68391e-09
8.94013e-08
1.62977e-09
8.78236e-08
1.57774e-09
8.62958e-08
1.52774e-09
8.48162e-08
1.47967e-09
8.33827e-08
1.43347e-09
8.19937e-08
1.38903e-09
8.06474e-08
1.34628e-09
7.93422e-08
1.30516e-09
7.80766e-08
1.2656e-09
7.68491e-08
1.22753e-09
7.56582e-08
1.19089e-09
7.45026e-08
1.1556e-09
7.3381e-08
1.12163e-09
7.22921e-08
1.08891e-09
7.12347e-08
1.05739e-09
7.02077e-08
1.02703e-09
6.92099e-08
9.9776e-10
6.82403e-08
9.69552e-10
6.7298e-08
9.42365e-10
6.63818e-08
9.1616e-10
6.54909e-08
8.90898e-10
6.46244e-08
8.66544e-10
6.37813e-08
8.43067e-10
6.29609e-08
8.20443e-10
6.21622e-08
7.9864e-10
6.13846e-08
7.77625e-10
6.06272e-08
7.57356e-10
5.98895e-08
7.37796e-10
5.91705e-08
7.18908e-10
5.84699e-08
7.00653e-10
5.77869e-08
6.82988e-10
5.7121e-08
6.65871e-10
5.64718e-08
6.49261e-10
5.58386e-08
6.3312e-10
5.52212e-08
6.17426e-10
5.46191e-08
6.02129e-10
5.40319e-08
5.87234e-10
5.34593e-08
5.72554e-10
5.2901e-08
5.58309e-10
5.23575e-08
5.43462e-10
5.18277e-08
5.29821e-10
5.13168e-08
5.10962e-10
5.08169e-08
4.99888e-10
5.03614e-08
4.55485e-10
4.98961e-08
4.65236e-10
2.69234e-10
8.35242e-07
6.03614e-10
8.34483e-07
1.01918e-09
8.33568e-07
1.22875e-09
8.32578e-07
1.33004e-09
8.31536e-07
1.39641e-09
8.30459e-07
1.43981e-09
8.29362e-07
1.46538e-09
8.28251e-07
1.48419e-09
8.27125e-07
1.50199e-09
8.25985e-07
1.52037e-09
8.24831e-07
1.54026e-09
8.23659e-07
1.56234e-09
8.22469e-07
1.58691e-09
8.21257e-07
1.61418e-09
8.20023e-07
1.64433e-09
8.18764e-07
1.67762e-09
8.17476e-07
1.71473e-09
8.16155e-07
1.75682e-09
8.14798e-07
1.80519e-09
8.13396e-07
1.86146e-09
8.11943e-07
1.92774e-09
8.10428e-07
2.0068e-09
8.08839e-07
2.1021e-09
8.07158e-07
2.21835e-09
8.05365e-07
2.36175e-09
8.03432e-07
2.53991e-09
8.01324e-07
2.76211e-09
7.98999e-07
3.03961e-09
7.96404e-07
3.38562e-09
7.93474e-07
3.81521e-09
7.90134e-07
4.34482e-09
7.86297e-07
4.99072e-09
7.81867e-07
5.76685e-09
7.76742e-07
6.68222e-09
7.70825e-07
7.73757e-09
7.64024e-07
8.92259e-09
7.5627e-07
1.02142e-08
7.47517e-07
1.15763e-08
7.37754e-07
1.29619e-08
7.27007e-07
1.43184e-08
7.15335e-07
1.55935e-08
7.0283e-07
1.67415e-08
6.89608e-07
1.77276e-08
6.75799e-07
1.85304e-08
6.61542e-07
1.91419e-08
6.46972e-07
1.95657e-08
6.32215e-07
1.98147e-08
6.17386e-07
1.99069e-08
6.02585e-07
1.98632e-08
5.87897e-07
1.97048e-08
5.73392e-07
1.94526e-08
5.59125e-07
1.91255e-08
5.4514e-07
1.87401e-08
5.31472e-07
1.83109e-08
5.18143e-07
1.78497e-08
5.05171e-07
1.73664e-08
4.92567e-07
1.68686e-08
4.80339e-07
1.63627e-08
4.68487e-07
1.58541e-08
4.57012e-07
1.53472e-08
4.45909e-07
1.48458e-08
4.35174e-07
1.43528e-08
4.24797e-07
1.38703e-08
4.14771e-07
1.33995e-08
4.05087e-07
1.2941e-08
3.95735e-07
1.24951e-08
3.86706e-07
1.20624e-08
3.77989e-07
1.16432e-08
3.69575e-07
1.12379e-08
3.61453e-07
1.08469e-08
3.53612e-07
1.04705e-08
3.46042e-07
1.01084e-08
3.38732e-07
9.7602e-09
3.31672e-07
9.42544e-09
3.24853e-07
9.10363e-09
3.18265e-07
8.79428e-09
3.11899e-07
8.49691e-09
3.05747e-07
8.21117e-09
2.99801e-07
7.93675e-09
2.94051e-07
7.67326e-09
2.88491e-07
7.42024e-09
2.83113e-07
7.17726e-09
2.77909e-07
6.94393e-09
2.72873e-07
6.71982e-09
2.67999e-07
6.50447e-09
2.63279e-07
6.29746e-09
2.58708e-07
6.09845e-09
2.54281e-07
5.90712e-09
2.49991e-07
5.72314e-09
2.45834e-07
5.54617e-09
2.41804e-07
5.37589e-09
2.37897e-07
5.21207e-09
2.34108e-07
5.05444e-09
2.30433e-07
4.90273e-09
2.26867e-07
4.75667e-09
2.23407e-07
4.616e-09
2.20048e-07
4.48052e-09
2.16787e-07
4.35005e-09
2.1362e-07
4.22436e-09
2.10544e-07
4.10325e-09
2.07555e-07
3.98649e-09
2.04651e-07
3.87396e-09
2.01828e-07
3.76548e-09
1.99083e-07
3.66092e-09
1.96414e-07
3.56011e-09
1.93817e-07
3.4629e-09
1.91291e-07
3.3692e-09
1.88833e-07
3.27889e-09
1.8644e-07
3.19185e-09
1.84109e-07
3.10795e-09
1.8184e-07
3.02702e-09
1.79628e-07
2.94892e-09
1.77474e-07
2.8735e-09
1.75374e-07
2.8006e-09
1.73327e-07
2.73005e-09
1.71331e-07
2.66169e-09
1.69385e-07
2.59535e-09
1.67487e-07
2.53088e-09
1.65636e-07
2.4682e-09
1.63831e-07
2.40709e-09
1.62071e-07
2.34759e-09
1.60355e-07
2.28895e-09
1.58681e-07
2.23203e-09
1.57052e-07
2.17276e-09
1.55463e-07
2.11814e-09
1.53931e-07
2.04308e-09
1.52433e-07
1.99806e-09
1.51066e-07
1.82253e-09
1.49675e-07
1.85669e-09
1.08238e-09
1.38281e-06
1.35789e-09
1.3815e-06
2.32468e-09
1.37996e-06
2.76671e-09
1.37831e-06
2.97902e-09
1.37658e-06
3.13155e-09
1.37479e-06
3.23119e-09
1.37296e-06
3.2894e-09
1.37111e-06
3.33364e-09
1.36924e-06
3.37616e-09
1.36734e-06
3.42003e-09
1.36541e-06
3.46756e-09
1.36346e-06
3.52046e-09
1.36146e-06
3.57974e-09
1.35943e-06
3.64634e-09
1.35735e-06
3.72116e-09
1.35523e-06
3.80545e-09
1.35304e-06
3.90166e-09
1.35078e-06
4.01342e-09
1.34844e-06
4.14494e-09
1.346e-06
4.30129e-09
1.34344e-06
4.48904e-09
1.34073e-06
4.71635e-09
1.33784e-06
4.99329e-09
1.33473e-06
5.33289e-09
1.33134e-06
5.75153e-09
1.32761e-06
6.26843e-09
1.32346e-06
6.90565e-09
1.31882e-06
7.68799e-09
1.31356e-06
8.64168e-09
1.30758e-06
9.79287e-09
1.30076e-06
1.11654e-08
1.29298e-06
1.27767e-08
1.28411e-06
1.46337e-08
1.27406e-06
1.67305e-08
1.26275e-06
1.90455e-08
1.25013e-06
2.15414e-08
1.23618e-06
2.41672e-08
1.2209e-06
2.68589e-08
1.20432e-06
2.95434e-08
1.18649e-06
3.21428e-08
1.1675e-06
3.45803e-08
1.14746e-06
3.67865e-08
1.12648e-06
3.87047e-08
1.10472e-06
4.02953e-08
1.08232e-06
4.15371e-08
1.05946e-06
4.24284e-08
1.03629e-06
4.29838e-08
1.01297e-06
4.32295e-08
9.89632e-07
4.31989e-08
9.66408e-07
4.2929e-08
9.43403e-07
4.24581e-08
9.20706e-07
4.18225e-08
8.9839e-07
4.10553e-08
8.76516e-07
4.01857e-08
8.55126e-07
3.9239e-08
8.34256e-07
3.82364e-08
8.1393e-07
3.71946e-08
7.94165e-07
3.6128e-08
7.7497e-07
3.50488e-08
7.5635e-07
3.39676e-08
7.38303e-07
3.2893e-08
7.20824e-07
3.18319e-08
7.03904e-07
3.07897e-08
6.87534e-07
2.97696e-08
6.71702e-07
2.87732e-08
6.56395e-07
2.78018e-08
6.41601e-07
2.68568e-08
6.27305e-07
2.59394e-08
6.13492e-07
2.50507e-08
6.00147e-07
2.4192e-08
5.87253e-07
2.33638e-08
5.74796e-07
2.25661e-08
5.62758e-07
2.1798e-08
5.51125e-07
2.10586e-08
5.39881e-07
2.03471e-08
5.29013e-07
1.96624e-08
5.18506e-07
1.90036e-08
5.08347e-07
1.83701e-08
4.98523e-07
1.77611e-08
4.8902e-07
1.7176e-08
4.79827e-07
1.66137e-08
4.70931e-07
1.60734e-08
4.6232e-07
1.55543e-08
4.53985e-07
1.50554e-08
4.45914e-07
1.45757e-08
4.38097e-07
1.41144e-08
4.30524e-07
1.36707e-08
4.23188e-07
1.3244e-08
4.16077e-07
1.28335e-08
4.09185e-07
1.24385e-08
4.02503e-07
1.20582e-08
3.96022e-07
1.16923e-08
3.89737e-07
1.13401e-08
3.83638e-07
1.1001e-08
3.77721e-07
1.06745e-08
3.71977e-07
1.03599e-08
3.664e-07
1.00568e-08
3.60986e-07
9.76491e-09
3.55726e-07
9.48363e-09
3.50617e-07
9.21251e-09
3.45652e-07
8.95112e-09
3.40827e-07
8.69911e-09
3.36137e-07
8.45615e-09
3.31576e-07
8.22191e-09
3.2714e-07
7.99603e-09
3.22824e-07
7.77821e-09
3.18625e-07
7.5682e-09
3.14538e-07
7.36576e-09
3.1056e-07
7.17063e-09
3.06685e-07
6.9825e-09
3.02911e-07
6.80103e-09
2.99234e-07
6.62586e-09
2.95651e-07
6.45669e-09
2.92158e-07
6.29315e-09
2.88754e-07
6.13488e-09
2.85434e-07
5.9815e-09
2.82197e-07
5.83265e-09
2.79039e-07
5.68798e-09
2.7596e-07
5.5473e-09
2.72957e-07
5.41016e-09
2.70028e-07
5.2766e-09
2.67172e-07
5.14498e-09
2.64387e-07
5.01717e-09
2.61676e-07
4.88414e-09
2.59032e-07
4.76139e-09
2.56482e-07
4.59309e-09
2.53989e-07
4.49131e-09
2.51713e-07
4.09853e-09
2.49399e-07
4.17121e-09
2.4387e-09
1.91588e-06
2.50524e-09
1.91396e-06
4.24682e-09
1.91176e-06
4.96644e-09
1.90943e-06
5.31374e-09
1.90698e-06
5.58232e-09
1.90445e-06
5.75454e-09
1.90189e-06
5.85452e-09
1.89929e-06
5.93387e-09
1.89665e-06
6.01219e-09
1.89398e-06
6.09452e-09
1.89126e-06
6.18556e-09
1.88849e-06
6.28907e-09
1.88566e-06
6.4079e-09
1.88276e-06
6.54515e-09
1.87978e-06
6.70421e-09
1.8767e-06
6.88938e-09
1.87349e-06
7.10775e-09
1.87014e-06
7.369e-09
1.8666e-06
7.68416e-09
1.86283e-06
8.06635e-09
1.85879e-06
8.53175e-09
1.85441e-06
9.09961e-09
1.84961e-06
9.7923e-09
1.8443e-06
1.06367e-08
1.83839e-06
1.16641e-08
1.83175e-06
1.29073e-08
1.82426e-06
1.4399e-08
1.81578e-06
1.617e-08
1.80617e-06
1.82449e-08
1.79533e-06
2.06387e-08
1.78314e-06
2.33552e-08
1.76953e-06
2.63827e-08
1.75447e-06
2.96941e-08
1.73795e-06
3.32491e-08
1.72e-06
3.69962e-08
1.70067e-06
4.08765e-08
1.68001e-06
4.48271e-08
1.65809e-06
4.87799e-08
1.63497e-06
5.26621e-08
1.61071e-06
5.6397e-08
1.58539e-06
5.99058e-08
1.55906e-06
6.31123e-08
1.53182e-06
6.59474e-08
1.50376e-06
6.83541e-08
1.475e-06
7.02931e-08
1.44569e-06
7.17461e-08
1.41595e-06
7.27171e-08
1.38595e-06
7.32275e-08
1.35584e-06
7.33122e-08
1.32576e-06
7.30152e-08
1.29583e-06
7.23867e-08
1.26617e-06
7.14777e-08
1.23689e-06
7.03368e-08
1.20807e-06
6.90088e-08
1.17977e-06
6.75342e-08
1.15206e-06
6.59479e-08
1.12498e-06
6.42784e-08
1.09855e-06
6.25506e-08
1.07282e-06
6.07865e-08
1.04778e-06
5.90054e-08
1.02345e-06
5.72231e-08
9.99828e-07
5.54528e-08
9.76912e-07
5.37049e-08
9.54696e-07
5.19862e-08
9.33168e-07
5.03005e-08
9.12319e-07
4.8651e-08
8.92135e-07
4.7041e-08
8.72601e-07
4.54733e-08
8.53701e-07
4.39506e-08
8.35418e-07
4.24756e-08
8.17732e-07
4.10499e-08
8.00624e-07
3.96737e-08
7.84076e-07
3.83461e-08
7.68069e-07
3.70659e-08
7.52584e-07
3.5832e-08
7.37603e-07
3.4643e-08
7.23109e-07
3.34975e-08
7.09085e-07
3.23945e-08
6.95513e-07
3.1333e-08
6.82377e-07
3.03121e-08
6.6966e-07
2.93301e-08
6.57348e-07
2.83855e-08
6.45425e-07
2.74772e-08
6.33877e-07
2.66036e-08
6.2269e-07
2.57631e-08
6.1185e-07
2.49542e-08
6.01345e-07
2.41757e-08
5.91163e-07
2.34264e-08
5.81291e-07
2.27053e-08
5.71718e-07
2.2011e-08
5.62434e-07
2.13423e-08
5.53428e-07
2.06985e-08
5.4469e-07
2.00785e-08
5.36209e-07
1.94814e-08
5.27978e-07
1.89061e-08
5.19986e-07
1.83517e-08
5.12225e-07
1.78174e-08
5.04688e-07
1.73026e-08
4.97365e-07
1.68063e-08
4.9025e-07
1.63279e-08
4.83334e-07
1.58664e-08
4.76612e-07
1.54214e-08
4.70076e-07
1.49923e-08
4.63719e-07
1.45785e-08
4.57536e-07
1.41793e-08
4.5152e-07
1.37943e-08
4.45665e-07
1.3423e-08
4.39966e-07
1.3065e-08
4.34417e-07
1.27199e-08
4.29012e-07
1.23871e-08
4.23747e-07
1.2066e-08
4.18617e-07
1.1756e-08
4.13617e-07
1.14566e-08
4.08743e-07
1.11671e-08
4.03991e-07
1.08869e-08
3.99357e-07
1.06153e-08
3.94838e-07
1.03517e-08
3.9043e-07
1.00955e-08
3.86131e-07
9.84634e-09
3.81938e-07
9.6034e-09
3.77848e-07
9.36678e-09
3.73859e-07
9.13358e-09
3.69969e-07
8.90708e-09
3.66182e-07
8.67133e-09
3.6249e-07
8.45367e-09
3.58928e-07
8.15542e-09
3.55444e-07
7.97443e-09
3.52264e-07
7.27871e-09
3.49031e-07
7.40464e-09
4.33512e-09
2.42766e-06
4.22518e-09
2.42499e-06
6.91464e-09
2.42207e-06
7.88591e-09
2.41901e-06
8.37379e-09
2.41581e-06
8.78211e-09
2.41253e-06
9.0349e-09
2.40921e-06
9.18266e-09
2.40583e-06
9.30854e-09
2.4024e-06
9.43867e-09
2.39892e-06
9.58144e-09
2.39536e-06
9.74634e-09
2.3917e-06
9.94158e-09
2.38794e-06
1.01749e-08
2.38403e-06
1.04553e-08
2.37994e-06
1.07928e-08
2.37563e-06
1.11996e-08
2.37104e-06
1.16932e-08
2.36612e-06
1.22958e-08
2.36077e-06
1.30317e-08
2.35491e-06
1.39282e-08
2.34842e-06
1.50165e-08
2.34119e-06
1.63304e-08
2.33308e-06
1.79044e-08
2.32394e-06
1.97742e-08
2.31363e-06
2.19744e-08
2.30201e-06
2.45313e-08
2.28895e-06
2.74607e-08
2.27435e-06
3.07647e-08
2.25817e-06
3.44292e-08
2.24038e-06
3.84255e-08
2.22102e-06
4.27136e-08
2.20016e-06
4.7244e-08
2.17789e-06
5.19612e-08
2.15433e-06
5.68093e-08
2.1296e-06
6.17335e-08
2.10379e-06
6.66827e-08
2.07701e-06
7.16101e-08
2.04932e-06
7.64677e-08
2.02078e-06
8.12034e-08
1.99142e-06
8.57585e-08
1.96126e-06
9.00667e-08
1.93031e-06
9.4057e-08
1.8986e-06
9.76564e-08
1.86616e-06
1.00795e-07
1.83304e-06
1.03413e-07
1.79932e-06
1.0547e-07
1.76509e-06
1.06947e-07
1.73047e-06
1.07847e-07
1.69559e-06
1.08192e-07
1.66058e-06
1.08019e-07
1.62559e-06
1.0738e-07
1.59074e-06
1.06332e-07
1.55614e-06
1.04932e-07
1.52191e-06
1.03238e-07
1.48814e-06
1.01304e-07
1.45491e-06
9.91772e-08
1.42229e-06
9.69003e-08
1.39033e-06
9.45095e-08
1.35908e-06
9.20391e-08
1.32857e-06
8.95191e-08
1.29881e-06
8.69748e-08
1.26984e-06
8.44279e-08
1.24165e-06
8.18962e-08
1.21424e-06
7.93917e-08
1.18762e-06
7.69219e-08
1.16178e-06
7.44936e-08
1.13671e-06
7.21132e-08
1.11239e-06
6.97863e-08
1.08883e-06
6.75182e-08
1.06599e-06
6.5314e-08
1.04386e-06
6.31772e-08
1.02243e-06
6.11091e-08
1.00166e-06
5.9109e-08
9.81552e-07
5.71762e-08
9.62074e-07
5.53095e-08
9.4321e-07
5.35073e-08
9.2494e-07
5.1768e-08
9.07244e-07
5.00905e-08
8.90103e-07
4.8474e-08
8.73498e-07
4.6917e-08
8.5741e-07
4.54174e-08
8.41823e-07
4.39733e-08
8.26717e-07
4.25831e-08
8.12076e-07
4.12446e-08
7.97883e-07
3.99557e-08
7.84123e-07
3.8714e-08
7.70781e-07
3.75181e-08
7.57841e-07
3.63662e-08
7.4529e-07
3.52567e-08
7.33113e-07
3.41876e-08
7.21298e-07
3.31575e-08
7.09831e-07
3.21649e-08
6.98701e-07
3.12086e-08
6.87896e-07
3.0287e-08
6.77403e-07
2.93986e-08
6.67213e-07
2.8542e-08
6.57314e-07
2.77161e-08
6.47697e-07
2.692e-08
6.38351e-07
2.61523e-08
6.29267e-07
2.54117e-08
6.20436e-07
2.46973e-08
6.11849e-07
2.40081e-08
6.03499e-07
2.33432e-08
5.95375e-07
2.27018e-08
5.87472e-07
2.20829e-08
5.7978e-07
2.14858e-08
5.72293e-07
2.09099e-08
5.65004e-07
2.03544e-08
5.57905e-07
1.98187e-08
5.5099e-07
1.9302e-08
5.44253e-07
1.88034e-08
5.37687e-07
1.83219e-08
5.31287e-07
1.78567e-08
5.25047e-07
1.74069e-08
5.18963e-07
1.69714e-08
5.13029e-07
1.65493e-08
5.07241e-07
1.61395e-08
5.01595e-07
1.57411e-08
4.96088e-07
1.53536e-08
4.90716e-07
1.49757e-08
4.85475e-07
1.46077e-08
4.80363e-07
1.42449e-08
4.75378e-07
1.38924e-08
4.70524e-07
1.35255e-08
4.65791e-07
1.31867e-08
4.61224e-07
1.27223e-08
4.56758e-07
1.24401e-08
4.52681e-07
1.13565e-08
4.48534e-07
1.15509e-08
6.76789e-09
2.90994e-06
6.6115e-09
2.90644e-06
1.04179e-08
2.90278e-06
1.15364e-08
2.89899e-06
1.21723e-08
2.89502e-06
1.27491e-08
2.89096e-06
1.30904e-08
2.88684e-06
1.33017e-08
2.88265e-06
1.35039e-08
2.87836e-06
1.37287e-08
2.87395e-06
1.3993e-08
2.86938e-06
1.43165e-08
2.8646e-06
1.47179e-08
2.85956e-06
1.52166e-08
2.85418e-06
1.58349e-08
2.84838e-06
1.65968e-08
2.84205e-06
1.75296e-08
2.83507e-06
1.86678e-08
2.82732e-06
2.0051e-08
2.81863e-06
2.17177e-08
2.80885e-06
2.37054e-08
2.79782e-06
2.60495e-08
2.78537e-06
2.87785e-08
2.77137e-06
3.19101e-08
2.75569e-06
3.54521e-08
2.73826e-06
3.93999e-08
2.71906e-06
4.37311e-08
2.69812e-06
4.8408e-08
2.6755e-06
5.33818e-08
2.65133e-06
5.85949e-08
2.62577e-06
6.39876e-08
2.59898e-06
6.95052e-08
2.57113e-06
7.50967e-08
2.54237e-06
8.0717e-08
2.51285e-06
8.63293e-08
2.48268e-06
9.19025e-08
2.45195e-06
9.74122e-08
2.42072e-06
1.0284e-07
2.38902e-06
1.08166e-07
2.35687e-06
1.13361e-07
2.32424e-06
1.18389e-07
2.2911e-06
1.23198e-07
2.25743e-06
1.27729e-07
2.22318e-06
1.31908e-07
2.18832e-06
1.35658e-07
2.15283e-06
1.38903e-07
2.11672e-06
1.41576e-07
2.08004e-06
1.43632e-07
2.04284e-06
1.45047e-07
2.00521e-06
1.45817e-07
1.96727e-06
1.4596e-07
1.92913e-06
1.45516e-07
1.89093e-06
1.44535e-07
1.85279e-06
1.43077e-07
1.81482e-06
1.41202e-07
1.77715e-06
1.38974e-07
1.73988e-06
1.36452e-07
1.70309e-06
1.33688e-07
1.66687e-06
1.3073e-07
1.63128e-06
1.27626e-07
1.59638e-06
1.24418e-07
1.56222e-06
1.21142e-07
1.52881e-06
1.17831e-07
1.4962e-06
1.14512e-07
1.46438e-06
1.11203e-07
1.43339e-06
1.07918e-07
1.40321e-06
1.04669e-07
1.37386e-06
1.01467e-07
1.34532e-06
9.83218e-08
1.3176e-06
9.52425e-08
1.29068e-06
9.2238e-08
1.26454e-06
8.93148e-08
1.23917e-06
8.64762e-08
1.21456e-06
8.37226e-08
1.19068e-06
8.10543e-08
1.16752e-06
7.84709e-08
1.14505e-06
7.5971e-08
1.12327e-06
7.35532e-08
1.10214e-06
7.12168e-08
1.08166e-06
6.89612e-08
1.06179e-06
6.67848e-08
1.04252e-06
6.46855e-08
1.02383e-06
6.26609e-08
1.00571e-06
6.07091e-08
9.88122e-07
5.88278e-08
9.71064e-07
5.70138e-08
9.54514e-07
5.52645e-08
9.38454e-07
5.35779e-08
9.22868e-07
5.19518e-08
9.07741e-07
5.03841e-08
8.93056e-07
4.88723e-08
8.78799e-07
4.74143e-08
8.64956e-07
4.60084e-08
8.51512e-07
4.46528e-08
8.38453e-07
4.33456e-08
8.25767e-07
4.20847e-08
8.13441e-07
4.08681e-08
8.01463e-07
3.96945e-08
7.8982e-07
3.85625e-08
7.78502e-07
3.74704e-08
7.67497e-07
3.64164e-08
7.56796e-07
3.53991e-08
7.46386e-07
3.44172e-08
7.3626e-07
3.34696e-08
7.26407e-07
3.25551e-08
7.16817e-07
3.16725e-08
7.07482e-07
3.08205e-08
6.98394e-07
2.99984e-08
6.89543e-07
2.92052e-08
6.80922e-07
2.84401e-08
6.72522e-07
2.77019e-08
6.64336e-07
2.69893e-08
6.56357e-07
2.63011e-08
6.48577e-07
2.56359e-08
6.40992e-07
2.49925e-08
6.33594e-07
2.43696e-08
6.26377e-07
2.37655e-08
6.19338e-07
2.31791e-08
6.1247e-07
2.26088e-08
6.0577e-07
2.20541e-08
5.99232e-07
2.1513e-08
5.92854e-07
2.09859e-08
5.86633e-07
2.04662e-08
5.80564e-07
1.99613e-08
5.74654e-07
1.94355e-08
5.68891e-07
1.89498e-08
5.63329e-07
1.82838e-08
5.5789e-07
1.78789e-08
5.52924e-07
1.63234e-08
5.47872e-07
1.66019e-08
9.73237e-09
3.35319e-06
1.01439e-08
3.34862e-06
1.49878e-08
3.34417e-06
1.5992e-08
3.33956e-06
1.67835e-08
3.33475e-06
1.75555e-08
3.32984e-06
1.80027e-08
3.3248e-06
1.83345e-08
3.3196e-06
1.87114e-08
3.31415e-06
1.91718e-08
3.30839e-06
1.97518e-08
3.30222e-06
2.04916e-08
3.29551e-06
2.14291e-08
3.28812e-06
2.26038e-08
3.2799e-06
2.40575e-08
3.27067e-06
2.58296e-08
3.26024e-06
2.79573e-08
3.24843e-06
3.04801e-08
3.23504e-06
3.34331e-08
3.21993e-06
3.68352e-08
3.20294e-06
4.06906e-08
3.184e-06
4.49877e-08
3.16308e-06
4.96971e-08
3.14022e-06
5.4772e-08
3.11552e-06
6.01582e-08
3.08912e-06
6.5799e-08
3.06122e-06
7.1632e-08
3.03203e-06
7.75961e-08
3.00177e-06
8.36361e-08
2.97067e-06
8.97014e-08
2.9389e-06
9.57511e-08
2.90665e-06
1.01758e-07
2.87405e-06
1.07701e-07
2.8412e-06
1.13566e-07
2.80818e-06
1.19346e-07
2.77504e-06
1.25038e-07
2.74182e-06
1.30641e-07
2.70849e-06
1.36162e-07
2.67506e-06
1.416e-07
2.64147e-06
1.46948e-07
2.60768e-06
1.52184e-07
2.57361e-06
1.5727e-07
2.53918e-06
1.62155e-07
2.50431e-06
1.66774e-07
2.46893e-06
1.71043e-07
2.43296e-06
1.74872e-07
2.39636e-06
1.78176e-07
2.35911e-06
1.80882e-07
2.32122e-06
1.82936e-07
2.28274e-06
1.84302e-07
2.24373e-06
1.84969e-07
2.20429e-06
1.84955e-07
2.16453e-06
1.84293e-07
2.12458e-06
1.83032e-07
2.08455e-06
1.8123e-07
2.04457e-06
1.7895e-07
2.00477e-06
1.76257e-07
1.96524e-06
1.7321e-07
1.92611e-06
1.69867e-07
1.88744e-06
1.66289e-07
1.84933e-06
1.62528e-07
1.81184e-06
1.58633e-07
1.77503e-06
1.54648e-07
1.73893e-06
1.50611e-07
1.70358e-06
1.46549e-07
1.66902e-06
1.42484e-07
1.63525e-06
1.38433e-07
1.6023e-06
1.34416e-07
1.57018e-06
1.30446e-07
1.53888e-06
1.26539e-07
1.50841e-06
1.22709e-07
1.47876e-06
1.18966e-07
1.44992e-06
1.15317e-07
1.42188e-06
1.11764e-07
1.39462e-06
1.0831e-07
1.36814e-06
1.04956e-07
1.34241e-06
1.01702e-07
1.31741e-06
9.85458e-08
1.29314e-06
9.54892e-08
1.26957e-06
9.25318e-08
1.24668e-06
8.96726e-08
1.22446e-06
8.69094e-08
1.20288e-06
8.42399e-08
1.18193e-06
8.16623e-08
1.16158e-06
7.91739e-08
1.14182e-06
7.67713e-08
1.12264e-06
7.44514e-08
1.104e-06
7.22118e-08
1.0859e-06
7.00502e-08
1.06832e-06
6.79638e-08
1.05125e-06
6.59498e-08
1.03465e-06
6.40055e-08
1.01853e-06
6.2129e-08
1.00287e-06
6.03182e-08
9.87644e-07
5.85706e-08
9.72845e-07
5.68834e-08
9.58458e-07
5.52544e-08
9.44471e-07
5.3682e-08
9.30869e-07
5.21642e-08
9.17641e-07
5.0699e-08
9.04773e-07
4.92842e-08
8.92254e-07
4.79178e-08
8.80073e-07
4.65983e-08
8.68218e-07
4.53243e-08
8.56679e-07
4.40941e-08
8.45446e-07
4.29062e-08
8.34507e-07
4.17592e-08
8.23853e-07
4.06518e-08
8.13476e-07
3.95831e-08
8.03364e-07
3.85518e-08
7.9351e-07
3.75563e-08
7.83904e-07
3.6595e-08
7.74539e-07
3.56663e-08
7.65406e-07
3.47684e-08
7.56499e-07
3.38998e-08
7.4781e-07
3.30585e-08
7.39333e-07
3.22425e-08
7.31062e-07
3.14501e-08
7.22991e-07
3.06794e-08
7.15116e-07
2.99295e-08
7.07431e-07
2.9198e-08
6.99932e-07
2.84852e-08
6.92616e-07
2.77823e-08
6.85478e-07
2.70991e-08
6.78526e-07
2.63876e-08
6.71746e-07
2.57301e-08
6.65201e-07
2.48279e-08
6.58801e-07
2.42794e-08
6.52955e-07
2.21693e-08
6.47009e-07
2.25481e-08
1.32229e-08
3.74372e-06
1.51721e-08
3.73799e-06
2.07228e-08
3.73274e-06
2.12448e-08
3.72721e-06
2.23128e-08
3.72137e-06
2.33925e-08
3.71528e-06
2.4096e-08
3.7088e-06
2.48071e-08
3.7018e-06
2.57193e-08
3.69408e-06
2.68833e-08
3.68547e-06
2.8367e-08
3.67573e-06
3.02328e-08
3.66463e-06
3.2531e-08
3.65193e-06
3.53041e-08
3.6374e-06
3.85826e-08
3.62086e-06
4.23754e-08
3.60214e-06
4.66695e-08
3.58118e-06
5.14417e-08
3.55796e-06
5.66524e-08
3.53256e-06
6.22378e-08
3.50513e-06
6.81233e-08
3.47588e-06
7.42326e-08
3.44509e-06
8.049e-08
3.41304e-06
8.68237e-08
3.38002e-06
9.31791e-08
3.3463e-06
9.95187e-08
3.31212e-06
1.05809e-07
3.27769e-06
1.12026e-07
3.24317e-06
1.18151e-07
3.2087e-06
1.24171e-07
3.17438e-06
1.30078e-07
3.14026e-06
1.35878e-07
3.10638e-06
1.41578e-07
3.07276e-06
1.47187e-07
3.03939e-06
1.52718e-07
3.00624e-06
1.58182e-07
2.97329e-06
1.63595e-07
2.94048e-06
1.68975e-07
2.90774e-06
1.74336e-07
2.87501e-06
1.79679e-07
2.8422e-06
1.84992e-07
2.80922e-06
1.90248e-07
2.77597e-06
1.95406e-07
2.74234e-06
2.00404e-07
2.70823e-06
2.05161e-07
2.67352e-06
2.09578e-07
2.63814e-06
2.13554e-07
2.60203e-06
2.16995e-07
2.56515e-06
2.19818e-07
2.52749e-06
2.21955e-07
2.4891e-06
2.2336e-07
2.45003e-06
2.24022e-07
2.41038e-06
2.23952e-07
2.37023e-06
2.23176e-07
2.32972e-06
2.21739e-07
2.28898e-06
2.19698e-07
2.24812e-06
2.17116e-07
2.20727e-06
2.14055e-07
2.16656e-06
2.10578e-07
2.12609e-06
2.06754e-07
2.08597e-06
2.02648e-07
2.04629e-06
1.98319e-07
2.00712e-06
1.93821e-07
1.96852e-06
1.89205e-07
1.93056e-06
1.84508e-07
1.89329e-06
1.7976e-07
1.85673e-06
1.74987e-07
1.82093e-06
1.70217e-07
1.78591e-06
1.65471e-07
1.75168e-06
1.6077e-07
1.71825e-06
1.56136e-07
1.68563e-06
1.51583e-07
1.65382e-06
1.47124e-07
1.62283e-06
1.42764e-07
1.59263e-06
1.38509e-07
1.56322e-06
1.34362e-07
1.5346e-06
1.30326e-07
1.50674e-06
1.264e-07
1.47964e-06
1.22587e-07
1.45329e-06
1.18889e-07
1.42765e-06
1.15305e-07
1.40273e-06
1.11834e-07
1.3785e-06
1.08473e-07
1.35494e-06
1.05222e-07
1.33203e-06
1.02078e-07
1.30977e-06
9.90381e-08
1.28812e-06
9.60979e-08
1.26708e-06
9.32553e-08
1.24662e-06
9.05081e-08
1.22673e-06
8.78533e-08
1.20739e-06
8.52874e-08
1.18859e-06
8.28075e-08
1.17031e-06
8.04116e-08
1.15253e-06
7.80972e-08
1.13524e-06
7.58614e-08
1.11842e-06
7.37011e-08
1.10206e-06
7.16135e-08
1.08615e-06
6.95967e-08
1.07066e-06
6.76486e-08
1.05559e-06
6.57666e-08
1.04093e-06
6.39481e-08
1.02666e-06
6.21906e-08
1.01276e-06
6.04925e-08
9.99235e-07
5.88519e-08
9.86062e-07
5.72669e-08
9.73233e-07
5.57357e-08
9.60736e-07
5.42562e-08
9.4856e-07
5.28273e-08
9.36696e-07
5.14476e-08
9.25132e-07
5.01155e-08
9.13859e-07
4.88293e-08
9.02867e-07
4.75867e-08
8.92148e-07
4.63857e-08
8.81692e-07
4.52243e-08
8.71491e-07
4.41003e-08
8.61539e-07
4.30113e-08
8.51826e-07
4.19548e-08
8.42348e-07
4.09286e-08
8.33097e-07
3.99302e-08
8.24068e-07
3.89586e-08
8.15255e-07
3.80105e-08
8.06654e-07
3.70865e-08
7.98261e-07
3.6175e-08
7.90072e-07
3.5289e-08
7.82094e-07
3.43656e-08
7.74311e-07
3.35123e-08
7.66799e-07
3.23403e-08
7.5945e-07
3.16281e-08
7.52737e-07
2.88821e-08
7.45907e-07
2.9378e-08
1.72331e-08
4.06175e-06
2.31338e-08
4.0544e-06
2.80699e-08
4.04791e-06
2.77413e-08
4.04069e-06
2.95339e-08
4.0327e-06
3.13735e-08
4.02381e-06
3.29923e-08
4.01363e-06
3.49835e-08
4.00184e-06
3.75158e-08
3.9881e-06
4.06187e-08
3.97212e-06
4.43482e-08
3.95364e-06
4.87117e-08
3.93249e-06
5.3677e-08
3.90862e-06
5.91821e-08
3.88206e-06
6.51389e-08
3.853e-06
7.14332e-08
3.82173e-06
7.79408e-08
3.78861e-06
8.45622e-08
3.75405e-06
9.1217e-08
3.71845e-06
9.78325e-08
3.68222e-06
1.04358e-07
3.64569e-06
1.10764e-07
3.60914e-06
1.17032e-07
3.57282e-06
1.23149e-07
3.53688e-06
1.29119e-07
3.50144e-06
1.34958e-07
3.46657e-06
1.40675e-07
3.43232e-06
1.46279e-07
3.39869e-06
1.5178e-07
3.36568e-06
1.57181e-07
3.33327e-06
1.62493e-07
3.30141e-06
1.67736e-07
3.27006e-06
1.72928e-07
3.23916e-06
1.78087e-07
3.20864e-06
1.83233e-07
3.17845e-06
1.88379e-07
3.1485e-06
1.93544e-07
3.11872e-06
1.98754e-07
3.08903e-06
2.04027e-07
3.05934e-06
2.09369e-07
3.02955e-06
2.14775e-07
2.99958e-06
2.20222e-07
2.96931e-06
2.25678e-07
2.93862e-06
2.31091e-07
2.9074e-06
2.36381e-07
2.87553e-06
2.41448e-07
2.84291e-06
2.46179e-07
2.80944e-06
2.50466e-07
2.77505e-06
2.54203e-07
2.73972e-06
2.5729e-07
2.70343e-06
2.5965e-07
2.66621e-06
2.61238e-07
2.62813e-06
2.62035e-07
2.58926e-06
2.62043e-07
2.54972e-06
2.61284e-07
2.50961e-06
2.59801e-07
2.46908e-06
2.57649e-07
2.42825e-06
2.54885e-07
2.38726e-06
2.51573e-07
2.34622e-06
2.47787e-07
2.30527e-06
2.436e-07
2.26451e-06
2.39079e-07
2.22404e-06
2.3429e-07
2.18395e-06
2.29293e-07
2.14432e-06
2.24138e-07
2.10522e-06
2.18862e-07
2.0667e-06
2.13503e-07
2.02882e-06
2.08097e-07
1.99162e-06
2.02674e-07
1.95513e-06
1.97262e-07
1.91938e-06
1.9189e-07
1.88438e-06
1.86582e-07
1.85015e-06
1.81354e-07
1.81669e-06
1.76216e-07
1.78402e-06
1.7118e-07
1.75213e-06
1.66252e-07
1.72102e-06
1.61437e-07
1.69068e-06
1.56738e-07
1.66111e-06
1.5216e-07
1.63229e-06
1.47706e-07
1.60422e-06
1.43378e-07
1.57688e-06
1.39176e-07
1.55025e-06
1.35098e-07
1.52433e-06
1.31145e-07
1.49909e-06
1.27314e-07
1.47453e-06
1.23602e-07
1.45062e-06
1.20007e-07
1.42735e-06
1.16525e-07
1.40471e-06
1.13155e-07
1.38267e-06
1.09893e-07
1.36122e-06
1.06736e-07
1.34034e-06
1.03681e-07
1.32003e-06
1.00726e-07
1.30026e-06
9.78687e-08
1.28101e-06
9.51051e-08
1.26228e-06
9.2432e-08
1.24405e-06
8.98464e-08
1.2263e-06
8.73462e-08
1.20902e-06
8.4929e-08
1.19219e-06
8.2592e-08
1.17581e-06
8.03321e-08
1.15985e-06
7.81464e-08
1.14431e-06
7.6033e-08
1.12918e-06
7.39899e-08
1.11443e-06
7.20148e-08
1.10006e-06
7.01055e-08
1.08605e-06
6.82597e-08
1.07241e-06
6.6476e-08
1.0591e-06
6.47527e-08
1.04613e-06
6.30882e-08
1.03348e-06
6.14801e-08
1.02114e-06
5.9926e-08
1.0091e-06
5.84232e-08
9.97355e-07
5.69693e-08
9.85894e-07
5.55617e-08
9.74707e-07
5.41975e-08
9.63789e-07
5.28736e-08
9.5313e-07
5.15872e-08
9.42725e-07
5.03354e-08
9.32567e-07
4.91168e-08
9.2265e-07
4.79274e-08
9.12968e-07
4.67679e-08
9.0352e-07
4.56237e-08
8.94297e-07
4.45112e-08
8.85312e-07
4.33513e-08
8.76545e-07
4.22792e-08
8.6808e-07
4.08047e-08
8.59799e-07
3.99095e-08
8.52233e-07
3.64482e-08
8.44532e-07
3.70784e-08
2.17552e-08
4.26753e-06
3.56692e-08
4.25789e-06
3.77106e-08
4.24808e-06
3.75572e-08
4.23579e-06
4.18183e-08
4.22105e-06
4.61175e-08
4.20336e-06
5.06809e-08
4.18224e-06
5.60969e-08
4.15751e-06
6.22489e-08
4.12919e-06
6.89403e-08
4.09751e-06
7.60247e-08
4.06293e-06
8.32979e-08
4.02603e-06
9.05733e-08
3.98751e-06
9.7706e-08
3.94804e-06
1.04601e-07
3.90828e-06
1.11197e-07
3.86875e-06
1.17467e-07
3.82988e-06
1.23441e-07
3.79193e-06
1.29167e-07
3.75508e-06
1.34678e-07
3.71943e-06
1.4001e-07
3.68499e-06
1.45197e-07
3.65176e-06
1.50265e-07
3.61968e-06
1.55226e-07
3.5887e-06
1.60106e-07
3.55872e-06
1.64938e-07
3.52966e-06
1.69734e-07
3.50143e-06
1.74505e-07
3.47395e-06
1.7926e-07
3.44713e-06
1.84001e-07
3.42089e-06
1.88733e-07
3.39515e-06
1.93482e-07
3.36981e-06
1.98264e-07
3.3448e-06
2.03095e-07
3.32004e-06
2.07993e-07
3.29545e-06
2.1297e-07
3.27096e-06
2.1804e-07
3.24648e-06
2.23235e-07
3.22193e-06
2.28573e-07
3.19723e-06
2.34064e-07
3.1723e-06
2.39705e-07
3.14705e-06
2.45478e-07
3.12137e-06
2.5136e-07
3.09515e-06
2.5731e-07
3.06828e-06
2.63253e-07
3.04063e-06
2.6909e-07
3.01211e-06
2.74704e-07
2.98259e-06
2.79981e-07
2.952e-06
2.84794e-07
2.92027e-06
2.89021e-07
2.88737e-06
2.92553e-07
2.85329e-06
2.95314e-07
2.81807e-06
2.97255e-07
2.78177e-06
2.98346e-07
2.74447e-06
2.98581e-07
2.70629e-06
2.97986e-07
2.66734e-06
2.966e-07
2.62775e-06
2.94469e-07
2.58767e-06
2.91652e-07
2.54724e-06
2.88224e-07