/*--------------------------------*- C++ -*----------------------------------*\
| =========                 |                                                 |
| \\      /  F ield         | OpenFOAM: The Open Source CFD Toolbox           |
|  \\    /   O peration     | Version:  1.7.x                                 |
|   \\  /    A nd           | Web:      www.OpenFOAM.com                      |
|    \\/     M anipulation  |                                                 |
\*---------------------------------------------------------------------------*/
FoamFile
{
    version     2.0;
    format      ascii;
    class       volScalarField;
    location    "2400";
    object      rho;
}
// * * * * * * * * * * * * * * * * * * * * * * * * * * * * * * * * * * * * * //

dimensions      [1 -3 0 0 0 0 0];

internalField   nonuniform List<scalar> 
5460
(
1.2414
1.24138
1.24138
1.24138
1.24138
1.24138
1.24138
1.24139
1.24139
1.24139
1.24139
1.24139
1.24139
1.24139
1.24139
1.24139
1.24139
1.24139
1.24139
1.24139
1.24138
1.24138
1.24137
1.24136
1.24135
1.24133
1.2413
1.24127
1.24122
1.24116
1.24108
1.24096
1.24082
1.24062
1.24037
1.24005
1.23965
1.23915
1.23854
1.23782
1.23698
1.23603
1.23496
1.23381
1.23256
1.23125
1.22988
1.22847
1.22704
1.22558
1.22412
1.22266
1.22121
1.21977
1.21836
1.21697
1.2156
1.21427
1.21297
1.2117
1.21046
1.20926
1.20809
1.20696
1.20586
1.20479
1.20376
1.20276
1.20179
1.20085
1.19994
1.19906
1.1982
1.19738
1.19658
1.19581
1.19506
1.19434
1.19364
1.19296
1.19231
1.19167
1.19106
1.19047
1.18989
1.18934
1.18879
1.18827
1.18776
1.18727
1.18679
1.18632
1.18587
1.18543
1.185
1.18459
1.18418
1.18379
1.18341
1.18304
1.18268
1.18233
1.18199
1.18165
1.18132
1.181
1.18068
1.18037
1.18006
1.17975
1.17944
1.17913
1.17882
1.1785
1.17818
1.17785
1.17752
1.17719
1.17686
1.17653
1.1762
1.17587
1.17554
1.17523
1.17491
1.17461
1.17431
1.17402
1.17374
1.17348
1.24139
1.24138
1.24138
1.24138
1.24138
1.24138
1.24138
1.24138
1.24139
1.24139
1.24139
1.24139
1.24139
1.24139
1.24139
1.24139
1.24139
1.24139
1.24138
1.24138
1.24138
1.24137
1.24136
1.24134
1.24133
1.2413
1.24126
1.24122
1.24115
1.24107
1.24096
1.24081
1.24063
1.24039
1.24009
1.23972
1.23927
1.23872
1.23807
1.23731
1.23645
1.23549
1.23443
1.23328
1.23205
1.23076
1.22942
1.22804
1.22663
1.2252
1.22377
1.22234
1.22091
1.2195
1.2181
1.21673
1.21539
1.21407
1.21279
1.21153
1.21031
1.20912
1.20796
1.20684
1.20575
1.20469
1.20367
1.20267
1.20171
1.20077
1.19987
1.19899
1.19815
1.19732
1.19653
1.19576
1.19502
1.1943
1.1936
1.19293
1.19227
1.19164
1.19103
1.19044
1.18987
1.18931
1.18877
1.18825
1.18774
1.18725
1.18677
1.18631
1.18585
1.18542
1.18499
1.18457
1.18417
1.18378
1.1834
1.18303
1.18267
1.18232
1.18198
1.18164
1.18132
1.18099
1.18068
1.18037
1.18006
1.17975
1.17944
1.17913
1.17881
1.1785
1.17817
1.17785
1.17752
1.17719
1.17686
1.17653
1.1762
1.17587
1.17555
1.17523
1.17491
1.17461
1.17431
1.17402
1.17374
1.17348
1.24139
1.24138
1.24138
1.24138
1.24138
1.24138
1.24138
1.24138
1.24139
1.24139
1.24139
1.24139
1.24139
1.24139
1.24139
1.24139
1.24138
1.24138
1.24137
1.24137
1.24136
1.24134
1.24132
1.24129
1.24126
1.24121
1.24114
1.24106
1.24095
1.24081
1.24064
1.24042
1.24015
1.23982
1.23941
1.23894
1.23838
1.23775
1.23702
1.23621
1.23531
1.23434
1.23328
1.23216
1.23097
1.22972
1.22844
1.22711
1.22576
1.2244
1.22302
1.22164
1.22027
1.21891
1.21756
1.21623
1.21493
1.21365
1.2124
1.21117
1.20998
1.20882
1.20769
1.20658
1.20551
1.20447
1.20346
1.20248
1.20153
1.20061
1.19972
1.19886
1.19802
1.19721
1.19642
1.19566
1.19492
1.19421
1.19352
1.19285
1.1922
1.19158
1.19097
1.19038
1.18981
1.18926
1.18873
1.18821
1.1877
1.18721
1.18673
1.18627
1.18582
1.18538
1.18496
1.18455
1.18415
1.18376
1.18338
1.18301
1.18265
1.1823
1.18196
1.18163
1.1813
1.18098
1.18066
1.18035
1.18004
1.17974
1.17943
1.17912
1.1788
1.17849
1.17817
1.17784
1.17752
1.17719
1.17686
1.17653
1.1762
1.17587
1.17555
1.17523
1.17492
1.17461
1.17432
1.17403
1.17374
1.17349
1.24139
1.24138
1.24138
1.24138
1.24138
1.24138
1.24138
1.24138
1.24138
1.24139
1.24139
1.24139
1.24138
1.24138
1.24138
1.24138
1.24137
1.24136
1.24135
1.24133
1.2413
1.24127
1.24122
1.24117
1.24109
1.24099
1.24087
1.24071
1.24052
1.24028
1.23999
1.23965
1.23924
1.23877
1.23823
1.23763
1.23696
1.23622
1.23542
1.23456
1.23364
1.23266
1.23162
1.23054
1.2294
1.22823
1.22701
1.22577
1.22451
1.22322
1.22193
1.22063
1.21933
1.21804
1.21676
1.2155
1.21425
1.21302
1.21182
1.21064
1.20949
1.20837
1.20727
1.2062
1.20516
1.20415
1.20316
1.2022
1.20128
1.20037
1.1995
1.19865
1.19783
1.19703
1.19626
1.19551
1.19478
1.19408
1.1934
1.19274
1.1921
1.19148
1.19088
1.1903
1.18973
1.18918
1.18865
1.18814
1.18764
1.18715
1.18668
1.18622
1.18577
1.18534
1.18492
1.18451
1.18411
1.18372
1.18334
1.18298
1.18262
1.18227
1.18193
1.1816
1.18128
1.18096
1.18064
1.18033
1.18003
1.17972
1.17941
1.1791
1.17879
1.17848
1.17816
1.17784
1.17751
1.17718
1.17686
1.17653
1.1762
1.17587
1.17555
1.17524
1.17492
1.17462
1.17432
1.17403
1.17375
1.1735
1.24139
1.24138
1.24138
1.24138
1.24138
1.24138
1.24138
1.24138
1.24138
1.24138
1.24138
1.24138
1.24137
1.24137
1.24136
1.24135
1.24133
1.2413
1.24127
1.24122
1.24116
1.24109
1.24099
1.24086
1.24071
1.24051
1.24028
1.24
1.23966
1.23927
1.23883
1.23832
1.23776
1.23714
1.23647
1.23575
1.23498
1.23417
1.23332
1.23243
1.2315
1.23054
1.22954
1.22851
1.22745
1.22636
1.22523
1.22409
1.22292
1.22174
1.22054
1.21934
1.21813
1.21693
1.21573
1.21454
1.21337
1.21221
1.21107
1.20995
1.20885
1.20778
1.20672
1.2057
1.20469
1.20372
1.20276
1.20184
1.20094
1.20006
1.19921
1.19838
1.19758
1.1968
1.19604
1.19531
1.19459
1.1939
1.19323
1.19258
1.19195
1.19134
1.19075
1.19018
1.18962
1.18908
1.18856
1.18805
1.18755
1.18707
1.1866
1.18615
1.18571
1.18528
1.18486
1.18445
1.18406
1.18367
1.1833
1.18293
1.18258
1.18223
1.1819
1.18157
1.18124
1.18093
1.18061
1.18031
1.18
1.1797
1.17939
1.17908
1.17878
1.17846
1.17815
1.17783
1.1775
1.17718
1.17685
1.17652
1.1762
1.17588
1.17556
1.17524
1.17493
1.17463
1.17433
1.17404
1.17376
1.17351
1.24138
1.24138
1.24138
1.24138
1.24138
1.24138
1.24138
1.24138
1.24138
1.24137
1.24137
1.24136
1.24134
1.24132
1.2413
1.24126
1.24121
1.24114
1.24106
1.24095
1.24081
1.24064
1.24043
1.24018
1.23988
1.23953
1.23912
1.23866
1.23815
1.23758
1.23696
1.2363
1.2356
1.23487
1.2341
1.2333
1.23248
1.23164
1.23077
1.22989
1.22899
1.22807
1.22713
1.22617
1.22519
1.22419
1.22317
1.22213
1.22107
1.22
1.21891
1.21782
1.21671
1.21561
1.21451
1.21341
1.21231
1.21123
1.21017
1.20911
1.20808
1.20706
1.20606
1.20508
1.20413
1.20319
1.20228
1.20139
1.20052
1.19967
1.19885
1.19805
1.19727
1.19651
1.19577
1.19505
1.19436
1.19368
1.19303
1.19239
1.19178
1.19118
1.1906
1.19003
1.18949
1.18896
1.18844
1.18794
1.18745
1.18697
1.18651
1.18606
1.18562
1.1852
1.18479
1.18438
1.18399
1.18361
1.18324
1.18288
1.18253
1.18219
1.18185
1.18152
1.1812
1.18089
1.18058
1.18027
1.17997
1.17967
1.17936
1.17906
1.17875
1.17844
1.17813
1.17781
1.17749
1.17717
1.17685
1.17652
1.1762
1.17588
1.17556
1.17525
1.17494
1.17464
1.17434
1.17406
1.17378
1.17352
1.24138
1.24137
1.24137
1.24137
1.24137
1.24137
1.24137
1.24137
1.24136
1.24134
1.24132
1.24129
1.24124
1.24119
1.24111
1.24101
1.24088
1.24071
1.24051
1.24027
1.23997
1.23963
1.23923
1.23878
1.23827
1.23772
1.23711
1.23647
1.23579
1.23507
1.23433
1.23356
1.23278
1.23199
1.23118
1.23036
1.22954
1.22871
1.22788
1.22704
1.22619
1.22533
1.22447
1.2236
1.22271
1.22181
1.2209
1.21997
1.21902
1.21806
1.21709
1.21611
1.21511
1.21411
1.21311
1.21211
1.21111
1.21011
1.20913
1.20815
1.20718
1.20623
1.20529
1.20437
1.20346
1.20258
1.20171
1.20086
1.20003
1.19921
1.19842
1.19765
1.1969
1.19617
1.19545
1.19476
1.19408
1.19343
1.19279
1.19217
1.19157
1.19098
1.19041
1.18986
1.18933
1.1888
1.1883
1.1878
1.18732
1.18686
1.1864
1.18596
1.18553
1.18511
1.1847
1.1843
1.18392
1.18354
1.18317
1.18282
1.18247
1.18213
1.1818
1.18147
1.18115
1.18084
1.18054
1.18023
1.17993
1.17963
1.17933
1.17903
1.17873
1.17842
1.17811
1.1778
1.17748
1.17716
1.17684
1.17652
1.1762
1.17588
1.17556
1.17525
1.17495
1.17465
1.17436
1.17407
1.1738
1.17354
1.24137
1.24137
1.24137
1.24137
1.24136
1.24135
1.24134
1.24131
1.24128
1.24122
1.24115
1.24105
1.24092
1.24075
1.24054
1.24028
1.23997
1.23961
1.23919
1.23871
1.23817
1.23759
1.23696
1.23628
1.23558
1.23485
1.23409
1.23332
1.23254
1.23175
1.23096
1.23017
1.22938
1.22859
1.22781
1.22703
1.22625
1.22547
1.2247
1.22393
1.22317
1.2224
1.22163
1.22085
1.22006
1.21927
1.21847
1.21765
1.21682
1.21598
1.21512
1.21425
1.21337
1.21248
1.21159
1.21068
1.20978
1.20887
1.20797
1.20707
1.20618
1.2053
1.20443
1.20357
1.20272
1.20188
1.20106
1.20026
1.19947
1.1987
1.19794
1.1972
1.19648
1.19578
1.19509
1.19442
1.19377
1.19313
1.19251
1.19191
1.19133
1.19076
1.1902
1.18966
1.18914
1.18863
1.18813
1.18765
1.18718
1.18672
1.18627
1.18584
1.18541
1.185
1.1846
1.18421
1.18383
1.18346
1.18309
1.18274
1.1824
1.18206
1.18173
1.18141
1.1811
1.18079
1.18049
1.18019
1.17989
1.17959
1.1793
1.179
1.1787
1.1784
1.17809
1.17778
1.17747
1.17715
1.17683
1.17651
1.1762
1.17588
1.17557
1.17526
1.17496
1.17466
1.17437
1.17409
1.17381
1.17356
1.24136
1.24136
1.24136
1.24134
1.24131
1.24126
1.24119
1.24109
1.24095
1.24077
1.24053
1.24024
1.23988
1.23946
1.23897
1.23841
1.2378
1.23713
1.23642
1.23567
1.2349
1.23411
1.23331
1.2325
1.23169
1.23089
1.23009
1.2293
1.22852
1.22775
1.227
1.22625
1.22552
1.2248
1.22409
1.22339
1.22269
1.22201
1.22133
1.22066
1.21999
1.21932
1.21865
1.21798
1.21731
1.21663
1.21594
1.21523
1.21452
1.21379
1.21305
1.2123
1.21153
1.21074
1.20995
1.20915
1.20834
1.20753
1.20672
1.2059
1.20509
1.20428
1.20348
1.20268
1.20189
1.20112
1.20035
1.19959
1.19885
1.19812
1.1974
1.1967
1.19601
1.19534
1.19468
1.19404
1.19341
1.1928
1.1922
1.19162
1.19105
1.1905
1.18996
1.18944
1.18893
1.18843
1.18795
1.18748
1.18701
1.18657
1.18613
1.1857
1.18529
1.18488
1.18449
1.1841
1.18373
1.18336
1.183
1.18266
1.18232
1.18199
1.18166
1.18135
1.18103
1.18073
1.18043
1.18013
1.17984
1.17955
1.17925
1.17896
1.17866
1.17837
1.17806
1.17776
1.17745
1.17714
1.17682
1.17651
1.1762
1.17588
1.17558
1.17527
1.17497
1.17468
1.17439
1.17411
1.17384
1.17358
1.24135
1.24132
1.24127
1.24117
1.24102
1.2408
1.24051
1.24013
1.23966
1.23911
1.23847
1.23775
1.23697
1.23613
1.23526
1.23437
1.23347
1.23257
1.23168
1.23081
1.22996
1.22912
1.22831
1.22752
1.22676
1.22601
1.22529
1.22459
1.22391
1.22324
1.22259
1.22196
1.22134
1.22073
1.22013
1.21954
1.21897
1.21839
1.21783
1.21727
1.21671
1.21616
1.2156
1.21504
1.21448
1.21391
1.21334
1.21275
1.21215
1.21153
1.21091
1.21026
1.2096
1.20893
1.20824
1.20754
1.20683
1.20611
1.20539
1.20466
1.20393
1.20319
1.20246
1.20173
1.20101
1.20029
1.19958
1.19887
1.19818
1.19749
1.19682
1.19615
1.1955
1.19486
1.19424
1.19362
1.19302
1.19244
1.19186
1.1913
1.19075
1.19022
1.1897
1.18919
1.1887
1.18821
1.18774
1.18728
1.18683
1.1864
1.18597
1.18555
1.18514
1.18475
1.18436
1.18398
1.18361
1.18325
1.1829
1.18256
1.18223
1.1819
1.18158
1.18127
1.18096
1.18066
1.18037
1.18008
1.17979
1.1795
1.17921
1.17892
1.17863
1.17833
1.17803
1.17773
1.17743
1.17712
1.17681
1.1765
1.17619
1.17589
1.17558
1.17528
1.17498
1.17469
1.17441
1.17413
1.17386
1.17361
1.24123
1.24098
1.24058
1.24001
1.23928
1.23839
1.23739
1.23628
1.23512
1.23394
1.23276
1.23162
1.23052
1.22948
1.22849
1.22756
1.22668
1.22585
1.22506
1.22432
1.22361
1.22294
1.22229
1.22167
1.22108
1.22051
1.21996
1.21942
1.2189
1.2184
1.2179
1.21742
1.21695
1.21649
1.21603
1.21558
1.21514
1.2147
1.21426
1.21382
1.21339
1.21295
1.21251
1.21207
1.21162
1.21116
1.2107
1.21022
1.20974
1.20923
1.20871
1.20818
1.20762
1.20706
1.20647
1.20587
1.20526
1.20463
1.20399
1.20335
1.2027
1.20204
1.20138
1.20072
1.20006
1.1994
1.19875
1.1981
1.19745
1.19682
1.19619
1.19556
1.19495
1.19435
1.19375
1.19317
1.1926
1.19204
1.19149
1.19095
1.19043
1.18991
1.18941
1.18892
1.18844
1.18797
1.18752
1.18707
1.18663
1.18621
1.18579
1.18538
1.18499
1.1846
1.18422
1.18385
1.18349
1.18314
1.18279
1.18246
1.18213
1.18181
1.18149
1.18119
1.18089
1.18059
1.1803
1.18001
1.17972
1.17944
1.17916
1.17887
1.17858
1.17829
1.178
1.1777
1.17741
1.1771
1.1768
1.1765
1.17619
1.17589
1.17559
1.17529
1.175
1.17471
1.17443
1.17415
1.17388
1.17364
1.23918
1.23681
1.23434
1.23193
1.2297
1.22774
1.22606
1.22466
1.22348
1.22248
1.22162
1.22086
1.22019
1.21959
1.21904
1.21853
1.21806
1.21761
1.21719
1.21678
1.2164
1.21603
1.21567
1.21532
1.21498
1.21465
1.21433
1.21401
1.2137
1.21339
1.21308
1.21278
1.21247
1.21217
1.21187
1.21157
1.21127
1.21097
1.21067
1.21036
1.21005
1.20973
1.20941
1.20909
1.20875
1.20841
1.20806
1.20769
1.20731
1.20691
1.2065
1.20607
1.20562
1.20515
1.20466
1.20416
1.20364
1.2031
1.20256
1.20199
1.20142
1.20084
1.20026
1.19967
1.19907
1.19848
1.19788
1.19728
1.19669
1.1961
1.19551
1.19493
1.19436
1.19379
1.19324
1.19269
1.19214
1.19161
1.19109
1.19058
1.19008
1.18958
1.1891
1.18863
1.18817
1.18772
1.18727
1.18684
1.18642
1.186
1.1856
1.1852
1.18482
1.18444
1.18407
1.18371
1.18335
1.18301
1.18267
1.18234
1.18202
1.18171
1.1814
1.1811
1.1808
1.18051
1.18022
1.17994
1.17966
1.17938
1.1791
1.17882
1.17854
1.17825
1.17797
1.17767
1.17738
1.17709
1.17679
1.17649
1.17619
1.17589
1.1756
1.1753
1.17501
1.17473
1.17445
1.17418
1.17391
1.17366
1.17909
1.18526
1.19055
1.19478
1.19812
1.2007
1.20267
1.20414
1.20518
1.20596
1.20655
1.20701
1.20738
1.20768
1.20791
1.2081
1.20825
1.20835
1.20843
1.20848
1.20851
1.20853
1.20852
1.2085
1.20847
1.20842
1.20836
1.20829
1.20821
1.20812
1.20802
1.20791
1.2078
1.20767
1.20754
1.2074
1.20726
1.2071
1.20694
1.20677
1.20659
1.2064
1.2062
1.20599
1.20578
1.20555
1.20531
1.20505
1.20478
1.20449
1.20418
1.20385
1.20351
1.20314
1.20275
1.20235
1.20192
1.20148
1.20102
1.20054
1.20005
1.19955
1.19904
1.19852
1.198
1.19746
1.19693
1.19639
1.19585
1.19531
1.19478
1.19424
1.19371
1.19319
1.19266
1.19215
1.19164
1.19114
1.19065
1.19016
1.18968
1.18921
1.18875
1.1883
1.18786
1.18743
1.187
1.18658
1.18618
1.18578
1.18538
1.185
1.18463
1.18426
1.1839
1.18355
1.1832
1.18287
1.18254
1.18221
1.1819
1.18159
1.18129
1.18099
1.1807
1.18042
1.18014
1.17986
1.17958
1.17931
1.17903
1.17876
1.17848
1.17821
1.17792
1.17764
1.17735
1.17706
1.17677
1.17648
1.17619
1.17589
1.1756
1.17531
1.17503
1.17475
1.17447
1.1742
1.17394
1.1737
1.16694
1.16836
1.17047
1.17302
1.17579
1.17862
1.18136
1.18397
1.18642
1.18861
1.19052
1.19218
1.19361
1.19486
1.19594
1.19688
1.19768
1.19838
1.19899
1.19954
1.20002
1.20046
1.20084
1.20117
1.20147
1.20173
1.20196
1.20216
1.20233
1.20248
1.2026
1.20271
1.20279
1.20286
1.20291
1.20294
1.20296
1.20296
1.20294
1.20292
1.20288
1.20282
1.20276
1.20267
1.20258
1.20247
1.20234
1.2022
1.20204
1.20186
1.20167
1.20145
1.20121
1.20094
1.20066
1.20035
1.20003
1.19968
1.19931
1.19893
1.19853
1.19811
1.19768
1.19724
1.19678
1.19632
1.19585
1.19538
1.1949
1.19442
1.19394
1.19345
1.19297
1.19249
1.19201
1.19153
1.19106
1.19059
1.19013
1.18968
1.18923
1.18879
1.18835
1.18792
1.1875
1.18709
1.18668
1.18628
1.18589
1.18551
1.18513
1.18476
1.1844
1.18405
1.1837
1.18336
1.18302
1.1827
1.18238
1.18206
1.18176
1.18146
1.18116
1.18087
1.18059
1.18031
1.18003
1.17976
1.17949
1.17922
1.17896
1.17869
1.17842
1.17815
1.17787
1.1776
1.17732
1.17703
1.17675
1.17646
1.17618
1.17589
1.17561
1.17532
1.17505
1.17477
1.1745
1.17423
1.17397
1.17373
1.16636
1.16642
1.16657
1.16689
1.16749
1.16846
1.16978
1.17142
1.17327
1.17522
1.1772
1.17911
1.18092
1.18261
1.18417
1.18562
1.18697
1.1882
1.18932
1.19034
1.19127
1.19211
1.19287
1.19355
1.19417
1.19473
1.19525
1.19572
1.19615
1.19654
1.19689
1.19721
1.1975
1.19776
1.198
1.19821
1.19839
1.19856
1.1987
1.19882
1.19893
1.19901
1.19908
1.19913
1.19916
1.19917
1.19917
1.19914
1.1991
1.19903
1.19895
1.19884
1.19871
1.19855
1.19837
1.19817
1.19795
1.1977
1.19743
1.19714
1.19683
1.1965
1.19616
1.1958
1.19542
1.19504
1.19464
1.19423
1.19382
1.1934
1.19298
1.19255
1.19212
1.19168
1.19125
1.19082
1.19039
1.18996
1.18954
1.18912
1.1887
1.18829
1.18788
1.18748
1.18709
1.1867
1.18631
1.18593
1.18556
1.1852
1.18484
1.18448
1.18414
1.1838
1.18346
1.18313
1.18281
1.1825
1.18219
1.18188
1.18159
1.1813
1.18101
1.18073
1.18045
1.18018
1.17991
1.17965
1.17939
1.17913
1.17887
1.1786
1.17834
1.17808
1.17781
1.17754
1.17727
1.177
1.17672
1.17644
1.17617
1.17589
1.17561
1.17533
1.17506
1.17479
1.17452
1.17426
1.17401
1.17377
1.16636
1.16636
1.16637
1.16638
1.16641
1.16647
1.16661
1.16688
1.16737
1.1681
1.1691
1.17033
1.17171
1.17318
1.17468
1.17617
1.17762
1.17902
1.18034
1.18159
1.18277
1.18387
1.1849
1.18587
1.18678
1.18763
1.18841
1.18914
1.18981
1.19043
1.191
1.19153
1.19202
1.19247
1.19289
1.19328
1.19363
1.19395
1.19425
1.19453
1.19477
1.195
1.1952
1.19538
1.19554
1.19567
1.19579
1.19588
1.19596
1.19601
1.19603
1.19604
1.19602
1.19597
1.1959
1.1958
1.19568
1.19554
1.19537
1.19517
1.19496
1.19472
1.19447
1.19419
1.1939
1.1936
1.19328
1.19294
1.1926
1.19225
1.19189
1.19152
1.19115
1.19077
1.19039
1.19
1.18962
1.18924
1.18885
1.18847
1.18809
1.18771
1.18734
1.18697
1.1866
1.18624
1.18588
1.18553
1.18518
1.18483
1.18449
1.18416
1.18383
1.1835
1.18319
1.18287
1.18256
1.18226
1.18197
1.18167
1.18139
1.18111
1.18083
1.18056
1.18029
1.18003
1.17977
1.17951
1.17926
1.17901
1.17876
1.1785
1.17825
1.17799
1.17774
1.17748
1.17722
1.17695
1.17668
1.17641
1.17614
1.17587
1.1756
1.17534
1.17507
1.17481
1.17455
1.17429
1.17404
1.17381
1.16636
1.16636
1.16637
1.16637
1.16637
1.16638
1.16638
1.16639
1.16642
1.16647
1.16659
1.16682
1.16722
1.16781
1.16859
1.16955
1.17063
1.1718
1.17301
1.17422
1.17542
1.17659
1.17771
1.1788
1.17984
1.18083
1.18177
1.18266
1.1835
1.1843
1.18506
1.18578
1.18645
1.18708
1.18767
1.18822
1.18873
1.18921
1.18966
1.19007
1.19046
1.19082
1.19115
1.19146
1.19175
1.192
1.19224
1.19245
1.19264
1.1928
1.19294
1.19306
1.19314
1.19321
1.19324
1.19325
1.19324
1.19319
1.19312
1.19303
1.19291
1.19277
1.19261
1.19243
1.19222
1.192
1.19176
1.19151
1.19124
1.19096
1.19066
1.19036
1.19005
1.18973
1.18941
1.18908
1.18874
1.18841
1.18807
1.18773
1.18739
1.18705
1.18671
1.18638
1.18604
1.18571
1.18538
1.18505
1.18473
1.18441
1.18409
1.18378
1.18347
1.18316
1.18286
1.18257
1.18227
1.18199
1.18171
1.18143
1.18115
1.18088
1.18062
1.18036
1.1801
1.17985
1.1796
1.17935
1.17911
1.17887
1.17862
1.17838
1.17814
1.17789
1.17764
1.1774
1.17714
1.17689
1.17663
1.17637
1.17611
1.17585
1.17559
1.17533
1.17507
1.17482
1.17456
1.17431
1.17407
1.17384
1.16637
1.16637
1.16637
1.16637
1.16637
1.16637
1.16638
1.16638
1.16638
1.16638
1.16638
1.16639
1.16641
1.16646
1.16656
1.16676
1.16708
1.16756
1.16819
1.16897
1.16985
1.1708
1.1718
1.17281
1.17382
1.17482
1.17579
1.17674
1.17766
1.17854
1.1794
1.18021
1.181
1.18174
1.18245
1.18314
1.18379
1.1844
1.18499
1.18554
1.18606
1.18654
1.187
1.18743
1.18783
1.1882
1.18855
1.18887
1.18917
1.18945
1.1897
1.18992
1.19011
1.19028
1.19042
1.19054
1.19062
1.19068
1.19071
1.19072
1.1907
1.19065
1.19058
1.19049
1.19038
1.19024
1.19009
1.18991
1.18972
1.18952
1.1893
1.18906
1.18882
1.18856
1.1883
1.18803
1.18775
1.18747
1.18718
1.18688
1.18659
1.18629
1.18599
1.1857
1.1854
1.1851
1.1848
1.1845
1.18421
1.18391
1.18362
1.18334
1.18305
1.18277
1.18249
1.18221
1.18194
1.18167
1.1814
1.18114
1.18088
1.18062
1.18037
1.18012
1.17988
1.17964
1.1794
1.17917
1.17893
1.1787
1.17847
1.17823
1.178
1.17777
1.17753
1.17729
1.17705
1.17681
1.17656
1.17631
1.17607
1.17582
1.17556
1.17531
1.17507
1.17482
1.17457
1.17433
1.17409
1.17387
1.16637
1.16637
1.16637
1.16637
1.16638
1.16638
1.16638
1.16638
1.16638
1.16638
1.16638
1.16638
1.16638
1.16638
1.16639
1.16639
1.16641
1.16645
1.16654
1.16669
1.16696
1.16735
1.16787
1.16851
1.16924
1.17003
1.17087
1.17173
1.17259
1.17346
1.17431
1.17515
1.17597
1.17676
1.17753
1.17828
1.179
1.1797
1.18037
1.18101
1.18163
1.18222
1.18279
1.18332
1.18384
1.18432
1.18477
1.1852
1.1856
1.18598
1.18633
1.18665
1.18695
1.18722
1.18746
1.18767
1.18786
1.18802
1.18815
1.18825
1.18833
1.18838
1.1884
1.1884
1.18837
1.18833
1.18826
1.18817
1.18806
1.18793
1.18778
1.18762
1.18745
1.18726
1.18706
1.18685
1.18663
1.1864
1.18617
1.18593
1.18568
1.18543
1.18518
1.18492
1.18466
1.1844
1.18414
1.18387
1.18361
1.18335
1.18309
1.18282
1.18256
1.18231
1.18205
1.18179
1.18154
1.18129
1.18105
1.1808
1.18056
1.18032
1.18008
1.17985
1.17962
1.17939
1.17917
1.17894
1.17872
1.1785
1.17828
1.17806
1.17784
1.17762
1.17739
1.17717
1.17694
1.17671
1.17647
1.17624
1.176
1.17576
1.17552
1.17528
1.17504
1.17481
1.17457
1.17434
1.17411
1.17389
1.16637
1.16637
1.16637
1.16638
1.16638
1.16638
1.16638
1.16638
1.16638
1.16638
1.16638
1.16638
1.16638
1.16638
1.16638
1.16638
1.16638
1.16638
1.16639
1.16639
1.16641
1.16644
1.16651
1.16664
1.16685
1.16717
1.1676
1.16812
1.16873
1.1694
1.17012
1.17086
1.17161
1.17237
1.17312
1.17387
1.1746
1.17532
1.17603
1.17671
1.17738
1.17803
1.17865
1.17926
1.17984
1.1804
1.18095
1.18147
1.18196
1.18243
1.18287
1.18329
1.18368
1.18405
1.18438
1.18469
1.18497
1.18522
1.18545
1.18564
1.18581
1.18595
1.18607
1.18616
1.18622
1.18626
1.18628
1.18627
1.18624
1.18619
1.18613
1.18604
1.18594
1.18582
1.18569
1.18554
1.18539
1.18522
1.18504
1.18485
1.18466
1.18446
1.18425
1.18404
1.18382
1.1836
1.18338
1.18316
1.18293
1.1827
1.18247
1.18224
1.18201
1.18178
1.18155
1.18132
1.18109
1.18086
1.18063
1.18041
1.18019
1.17997
1.17975
1.17953
1.17931
1.1791
1.17889
1.17868
1.17847
1.17827
1.17806
1.17785
1.17764
1.17743
1.17722
1.17701
1.1768
1.17658
1.17636
1.17614
1.17591
1.17569
1.17546
1.17523
1.175
1.17478
1.17455
1.17433
1.17411
1.1739
1.16638
1.16638
1.16638
1.16638
1.16638
1.16638
1.16638
1.16638
1.16638
1.16638
1.16638
1.16638
1.16638
1.16638
1.16638
1.16638
1.16638
1.16638
1.16638
1.16638
1.16639
1.16639
1.16639
1.16639
1.1664
1.16643
1.16648
1.16658
1.16675
1.16701
1.16736
1.16779
1.16831
1.16888
1.1695
1.17014
1.1708
1.17147
1.17214
1.17281
1.17348
1.17413
1.17478
1.17541
1.17603
1.17663
1.17722
1.17778
1.17834
1.17887
1.17939
1.17989
1.18036
1.18081
1.18123
1.18162
1.18199
1.18233
1.18264
1.18292
1.18318
1.18341
1.18361
1.18378
1.18393
1.18406
1.18416
1.18423
1.18428
1.18432
1.18433
1.18432
1.18429
1.18424
1.18418
1.1841
1.18401
1.1839
1.18379
1.18366
1.18352
1.18337
1.18321
1.18305
1.18288
1.18271
1.18253
1.18234
1.18215
1.18196
1.18177
1.18157
1.18137
1.18117
1.18097
1.18077
1.18056
1.18036
1.18016
1.17996
1.17976
1.17955
1.17936
1.17916
1.17896
1.17876
1.17857
1.17838
1.17818
1.17799
1.1778
1.17761
1.17741
1.17722
1.17702
1.17682
1.17662
1.17642
1.17622
1.17601
1.1758
1.17559
1.17537
1.17516
1.17494
1.17473
1.17451
1.1743
1.17409
1.17389
1.16638
1.16638
1.16638
1.16638
1.16638
1.16638
1.16638
1.16638
1.16638
1.16638
1.16638
1.16638
1.16638
1.16638
1.16638
1.16638
1.16638
1.16638
1.16638
1.16639
1.16639
1.16639
1.16639
1.16639
1.16639
1.16639
1.16639
1.16639
1.1664
1.16642
1.16646
1.16653
1.16666
1.16687
1.16715
1.16751
1.16795
1.16844
1.16897
1.16953
1.17012
1.17071
1.17132
1.17193
1.17253
1.17313
1.17372
1.17431
1.17488
1.17544
1.17599
1.17653
1.17705
1.17755
1.17804
1.17851
1.17895
1.17937
1.17975
1.18012
1.18045
1.18076
1.18104
1.1813
1.18153
1.18173
1.18191
1.18207
1.1822
1.18231
1.18239
1.18246
1.1825
1.18253
1.18254
1.18253
1.1825
1.18246
1.1824
1.18234
1.18225
1.18216
1.18206
1.18195
1.18183
1.1817
1.18157
1.18142
1.18128
1.18113
1.18097
1.18081
1.18064
1.18048
1.18031
1.18014
1.17996
1.17979
1.17961
1.17944
1.17926
1.17908
1.1789
1.17873
1.17855
1.17837
1.1782
1.17802
1.17785
1.17767
1.17749
1.17732
1.17714
1.17696
1.17678
1.1766
1.17641
1.17623
1.17604
1.17584
1.17565
1.17545
1.17526
1.17506
1.17485
1.17465
1.17445
1.17425
1.17405
1.17386
1.16638
1.16638
1.16638
1.16638
1.16638
1.16638
1.16638
1.16638
1.16638
1.16638
1.16638
1.16638
1.16638
1.16638
1.16638
1.16638
1.16638
1.16639
1.16639
1.16639
1.16639
1.16639
1.16639
1.16639
1.16639
1.16639
1.16639
1.16639
1.16639
1.16639
1.16639
1.16639
1.1664
1.16641
1.16644
1.16649
1.16659
1.16675
1.16697
1.16727
1.16763
1.16805
1.16852
1.16902
1.16954
1.17007
1.17062
1.17117
1.17172
1.17227
1.17282
1.17336
1.17389
1.17442
1.17493
1.17543
1.17592
1.17639
1.17684
1.17727
1.17768
1.17805
1.17841
1.17873
1.17904
1.17932
1.17957
1.1798
1.18
1.18018
1.18034
1.18048
1.1806
1.18069
1.18077
1.18083
1.18087
1.18089
1.1809
1.18089
1.18087
1.18084
1.18079
1.18073
1.18066
1.18058
1.1805
1.1804
1.1803
1.18019
1.18007
1.17995
1.17983
1.1797
1.17956
1.17942
1.17928
1.17914
1.17899
1.17884
1.17869
1.17854
1.17839
1.17823
1.17808
1.17792
1.17777
1.17761
1.17745
1.1773
1.17714
1.17698
1.17682
1.17666
1.1765
1.17633
1.17616
1.17599
1.17582
1.17564
1.17547
1.17529
1.1751
1.17492
1.17473
1.17455
1.17436
1.17417
1.17398
1.1738
1.16638
1.16638
1.16638
1.16638
1.16638
1.16638
1.16638
1.16638
1.16638
1.16638
1.16638
1.16638
1.16638
1.16638
1.16638
1.16639
1.16639
1.16639
1.16639
1.16639
1.16639
1.16639
1.16639
1.16639
1.16639
1.16639
1.16639
1.16639
1.16639
1.16639
1.16639
1.16639
1.16639
1.16639
1.16639
1.16639
1.16639
1.1664
1.16642
1.16646
1.16653
1.16665
1.16682
1.16707
1.16737
1.16773
1.16813
1.16857
1.16904
1.16952
1.17002
1.17052
1.17102
1.17153
1.17203
1.17254
1.17303
1.17351
1.17399
1.17445
1.17489
1.17533
1.17574
1.17613
1.1765
1.17684
1.17716
1.17745
1.17772
1.17797
1.1782
1.1784
1.17859
1.17875
1.17889
1.17902
1.17912
1.17921
1.17928
1.17933
1.17937
1.17939
1.1794
1.1794
1.17938
1.17936
1.17932
1.17927
1.17922
1.17915
1.17908
1.179
1.17891
1.17882
1.17872
1.17862
1.17851
1.1784
1.17829
1.17817
1.17805
1.17792
1.1778
1.17767
1.17754
1.17741
1.17727
1.17714
1.177
1.17687
1.17673
1.17659
1.17645
1.17631
1.17616
1.17601
1.17586
1.17571
1.17556
1.1754
1.17524
1.17508
1.17491
1.17474
1.17457
1.1744
1.17423
1.17406
1.17388
1.17372
1.16638
1.16638
1.16638
1.16638
1.16638
1.16638
1.16638
1.16638
1.16638
1.16638
1.16638
1.16638
1.16639
1.16639
1.16639
1.16639
1.16639
1.16639
1.16639
1.16639
1.16639
1.16639
1.16639
1.16639
1.16639
1.16639
1.16639
1.16639
1.16639
1.16639
1.16639
1.16639
1.16639
1.16639
1.16639
1.16639
1.16639
1.16639
1.16639
1.16639
1.16639
1.1664
1.16641
1.16643
1.16648
1.16657
1.16671
1.1669
1.16715
1.16745
1.1678
1.16819
1.1686
1.16904
1.16949
1.16994
1.1704
1.17087
1.17133
1.17179
1.17225
1.17269
1.17312
1.17354
1.17395
1.17434
1.17471
1.17506
1.17539
1.1757
1.17599
1.17625
1.1765
1.17672
1.17692
1.17711
1.17728
1.17742
1.17755
1.17766
1.17776
1.17784
1.17791
1.17796
1.178
1.17802
1.17803
1.17804
1.17803
1.17801
1.17798
1.17795
1.1779
1.17785
1.17779
1.17773
1.17766
1.17758
1.1775
1.17741
1.17732
1.17723
1.17713
1.17703
1.17693
1.17682
1.17671
1.1766
1.17649
1.17637
1.17626
1.17614
1.17602
1.1759
1.17577
1.17564
1.17551
1.17538
1.17525
1.17511
1.17497
1.17482
1.17467
1.17453
1.17437
1.17422
1.17406
1.17391
1.17375
1.1736
1.16638
1.16638
1.16638
1.16638
1.16638
1.16638
1.16638
1.16638
1.16638
1.16638
1.16639
1.16639
1.16639
1.16639
1.16639
1.16639
1.16639
1.16639
1.16639
1.16639
1.16639
1.16639
1.16639
1.16639
1.16639
1.16639
1.16639
1.16639
1.16639
1.16639
1.16639
1.16639
1.16639
1.16639
1.16639
1.16639
1.16639
1.16639
1.16639
1.16639
1.16639
1.16639
1.16639
1.16639
1.16639
1.16639
1.1664
1.16642
1.16645
1.16651
1.16661
1.16676
1.16696
1.16721
1.16751
1.16785
1.16822
1.16861
1.16901
1.16942
1.16985
1.17027
1.17069
1.17111
1.17152
1.17193
1.17232
1.17269
1.17306
1.17341
1.17374
1.17406
1.17436
1.17464
1.17489
1.17513
1.17535
1.17556
1.17574
1.17591
1.17606
1.17619
1.17631
1.17642
1.17651
1.17659
1.17665
1.1767
1.17674
1.17677
1.17679
1.17679
1.17679
1.17678
1.17676
1.17674
1.1767
1.17667
1.17662
1.17657
1.17651
1.17645
1.17638
1.17631
1.17624
1.17616
1.17608
1.17599
1.1759
1.17581
1.17572
1.17562
1.17553
1.17542
1.17532
1.17521
1.17511
1.17499
1.17488
1.17476
1.17464
1.17451
1.17439
1.17426
1.17412
1.17399
1.17385
1.17371
1.17357
1.17343
1.16638
1.16638
1.16638
1.16638
1.16638
1.16638
1.16639
1.16639
1.16639
1.16639
1.16639
1.16639
1.16639
1.16639
1.16639
1.16639
1.16639
1.16639
1.16639
1.16639
1.16639
1.16639
1.16639
1.16639
1.16639
1.16639
1.16639
1.16639
1.16639
1.16639
1.16639
1.16639
1.16639
1.16639
1.16639
1.16639
1.16639
1.16639
1.16639
1.16639
1.16639
1.16639
1.16639
1.16639
1.16639
1.16639
1.16639
1.16639
1.16639
1.16639
1.1664
1.16641
1.16643
1.16647
1.16654
1.16665
1.1668
1.16701
1.16726
1.16755
1.16787
1.16821
1.16858
1.16895
1.16933
1.16971
1.17009
1.17047
1.17084
1.1712
1.17155
1.17189
1.17222
1.17253
1.17283
1.17312
1.17339
1.17364
1.17387
1.17409
1.17429
1.17447
1.17464
1.1748
1.17494
1.17506
1.17517
1.17527
1.17536
1.17543
1.1755
1.17555
1.17559
1.17562
1.17564
1.17566
1.17566
1.17566
1.17565
1.17564
1.17561
1.17558
1.17555
1.17551
1.17547
1.17542
1.17536
1.17531
1.17524
1.17518
1.17511
1.17504
1.17497
1.17489
1.17481
1.17472
1.17464
1.17455
1.17445
1.17435
1.17425
1.17415
1.17404
1.17393
1.17382
1.17371
1.17359
1.17347
1.17334
1.17322
1.16639
1.16639
1.16639
1.16639
1.16639
1.16639
1.16639
1.16639
1.16639
1.16639
1.16639
1.16639
1.16639
1.16639
1.16639
1.16639
1.16639
1.16639
1.16639
1.16639
1.16639
1.16639
1.16639
1.16639
1.16639
1.16639
1.16639
1.16639
1.16639
1.16639
1.16639
1.16639
1.16639
1.16639
1.16639
1.16639
1.16639
1.16639
1.16639
1.16639
1.16639
1.16639
1.16639
1.16639
1.16639
1.16639
1.16639
1.16639
1.16639
1.16639
1.16639
1.16639
1.16639
1.16639
1.16639
1.1664
1.16641
1.16644
1.16648
1.16656
1.16667
1.16683
1.16703
1.16728
1.16755
1.16786
1.16818
1.16851
1.16885
1.16918
1.16952
1.16986
1.17019
1.17051
1.17082
1.17112
1.17142
1.1717
1.17197
1.17223
1.17247
1.1727
1.17291
1.17311
1.1733
1.17347
1.17362
1.17377
1.1739
1.17402
1.17412
1.17422
1.1743
1.17437
1.17444
1.17449
1.17454
1.17457
1.1746
1.17462
1.17463
1.17464
1.17463
1.17463
1.17461
1.1746
1.17457
1.17454
1.17451
1.17447
1.17443
1.17438
1.17434
1.17428
1.17423
1.17416
1.1741
1.17403
1.17396
1.17389
1.17381
1.17373
1.17364
1.17355
1.17346
1.17337
1.17327
1.17317
1.17306
1.17296
1.16639
1.16639
1.16639
1.16639
1.16639
1.16639
1.16639
1.16639
1.16639
1.16639
1.16639
1.16639
1.16639
1.16639
1.16639
1.16639
1.16639
1.16639
1.16639
1.16639
1.16639
1.16639
1.16639
1.16639
1.16639
1.16639
1.16639
1.16639
1.16639
1.16639
1.16639
1.16639
1.16639
1.16639
1.16639
1.16639
1.16639
1.16639
1.16639
1.16639
1.16639
1.16639
1.16639
1.16639
1.16639
1.16639
1.16639
1.16639
1.16639