/*--------------------------------*- C++ -*----------------------------------*\
| =========                 |                                                 |
| \\      /  F ield         | OpenFOAM: The Open Source CFD Toolbox           |
|  \\    /   O peration     | Version:  1.7.x                                 |
|   \\  /    A nd           | Web:      www.OpenFOAM.com                      |
|    \\/     M anipulation  |                                                 |
\*---------------------------------------------------------------------------*/
FoamFile
{
    version     2.0;
    format      ascii;
    class       volScalarField;
    location    "2400";
    object      T;
}
// * * * * * * * * * * * * * * * * * * * * * * * * * * * * * * * * * * * * * //

dimensions      [0 0 0 1 0 0 0];

internalField   nonuniform List<scalar> 
5460
(
280
279.999
279.999
279.999
279.999
279.999
279.999
279.999
279.999
279.999
280
280
280
280
280
280
280
280.001
280.001
280.002
280.002
280.004
280.005
280.008
280.011
280.015
280.021
280.029
280.039
280.054
280.073
280.098
280.132
280.176
280.232
280.305
280.396
280.509
280.647
280.811
281.001
281.218
281.46
281.724
282.008
282.309
282.622
282.946
283.278
283.614
283.952
284.291
284.629
284.964
285.295
285.621
285.941
286.255
286.562
286.861
287.154
287.439
287.717
287.987
288.249
288.505
288.752
288.993
289.226
289.452
289.671
289.884
290.09
290.29
290.483
290.671
290.853
291.029
291.199
291.364
291.524
291.679
291.829
291.974
292.116
292.252
292.385
292.514
292.64
292.761
292.88
292.995
293.106
293.215
293.321
293.423
293.523
293.62
293.715
293.807
293.897
293.984
294.069
294.153
294.234
294.314
294.393
294.471
294.549
294.626
294.703
294.781
294.86
294.939
295.02
295.101
295.183
295.266
295.35
295.433
295.516
295.599
295.68
295.76
295.839
295.916
295.992
296.065
296.136
296.201
280
279.999
279.999
279.999
279.999
279.999
279.999
279.999
279.999
279.999
280
280
280
280
280
280
280.001
280.001
280.002
280.003
280.004
280.006
280.008
280.011
280.016
280.022
280.03
280.041
280.056
280.075
280.1
280.132
280.174
280.227
280.295
280.379
280.482
280.606
280.754
280.925
281.121
281.34
281.582
281.844
282.125
282.42
282.728
283.046
283.371
283.701
284.033
284.366
284.698
285.027
285.353
285.675
285.991
286.3
286.604
286.9
287.19
287.472
287.747
288.015
288.275
288.529
288.774
289.013
289.245
289.47
289.688
289.899
290.104
290.303
290.496
290.682
290.863
291.038
291.208
291.373
291.532
291.686
291.836
291.981
292.122
292.258
292.391
292.519
292.644
292.766
292.884
292.999
293.11
293.219
293.324
293.426
293.526
293.623
293.718
293.809
293.899
293.986
294.071
294.154
294.236
294.316
294.395
294.473
294.55
294.627
294.704
294.782
294.86
294.94
295.02
295.102
295.184
295.267
295.35
295.433
295.516
295.598
295.68
295.76
295.839
295.916
295.991
296.064
296.135
296.2
280
279.999
279.999
279.999
279.999
279.999
279.999
279.999
279.999
280
280
280
280
280
280.001
280.001
280.002
280.003
280.004
280.006
280.009
280.012
280.017
280.023
280.031
280.043
280.057
280.076
280.1
280.132
280.171
280.221
280.283
280.358
280.448
280.556
280.682
280.827
280.991
281.176
281.38
281.603
281.843
282.101
282.373
282.658
282.955
283.26
283.571
283.888
284.207
284.527
284.847
285.165
285.48
285.792
286.099
286.4
286.696
286.985
287.268
287.544
287.814
288.076
288.332
288.581
288.823
289.058
289.286
289.508
289.723
289.932
290.135
290.331
290.522
290.707
290.886
291.06
291.228
291.391
291.549
291.703
291.851
291.995
292.135
292.271
292.402
292.53
292.655
292.775
292.893
293.007
293.118
293.226
293.331
293.433
293.532
293.629
293.723
293.815
293.904
293.991
294.076
294.159
294.24
294.32
294.398
294.476
294.553
294.63
294.707
294.784
294.862
294.942
295.022
295.103
295.185
295.267
295.35
295.433
295.516
295.598
295.679
295.759
295.838
295.915
295.99
296.063
296.134
296.198
280
279.999
279.999
279.999
279.999
279.999
279.999
280
280
280
280
280
280.001
280.001
280.002
280.003
280.005
280.007
280.011
280.015
280.021
280.028
280.038
280.052
280.069
280.091
280.119
280.154
280.198
280.252
280.317
280.395
280.487
280.594
280.716
280.853
281.005
281.173
281.355
281.551
281.762
281.986
282.223
282.472
282.732
283.003
283.282
283.569
283.862
284.16
284.461
284.763
285.066
285.368
285.668
285.965
286.259
286.548
286.832
287.111
287.384
287.652
287.913
288.168
288.417
288.659
288.895
289.125
289.349
289.566
289.777
289.982
290.181
290.374
290.562
290.744
290.921
291.092
291.258
291.419
291.576
291.727
291.874
292.017
292.155
292.289
292.42
292.547
292.67
292.79
292.907
293.02
293.13
293.238
293.342
293.443
293.542
293.638
293.732
293.823
293.911
293.998
294.082
294.165
294.246
294.325
294.404
294.481
294.558
294.634
294.711
294.788
294.866
294.944
295.024
295.105
295.186
295.268
295.351
295.433
295.516
295.597
295.678
295.758
295.836
295.913
295.988
296.061
296.131
296.196
280
279.999
279.999
279.999
279.999
279.999
280
280
280
280.001
280.001
280.002
280.003
280.005
280.007
280.01
280.014
280.02
280.028
280.038
280.052
280.069
280.092
280.12
280.155
280.199
280.252
280.316
280.392
280.48
280.581
280.696
280.824
280.964
281.117
281.281
281.456
281.64
281.835
282.038
282.25
282.471
282.7
282.937
283.182
283.434
283.694
283.959
284.23
284.505
284.784
285.065
285.347
285.629
285.91
286.189
286.466
286.74
287.01
287.275
287.536
287.792
288.043
288.288
288.528
288.762
288.991
289.214
289.431
289.642
289.848
290.048
290.242
290.431
290.615
290.793
290.967
291.135
291.298
291.457
291.611
291.76
291.905
292.045
292.182
292.315
292.444
292.569
292.691
292.81
292.925
293.037
293.147
293.253
293.356
293.457
293.555
293.65
293.743
293.833
293.922
294.008
294.092
294.174
294.254
294.333
294.411
294.487
294.564
294.64
294.716
294.793
294.87
294.948
295.027
295.107
295.188
295.27
295.352
295.434
295.516
295.597
295.677
295.757
295.835
295.911
295.985
296.058
296.128
296.193
280
279.999
279.999
279.999
280
280
280
280.001
280.001
280.003
280.004
280.006
280.01
280.014
280.021
280.029
280.041
280.056
280.075
280.1
280.131
280.17
280.217
280.274
280.342
280.422
280.514
280.618
280.735
280.864
281.003
281.154
281.313
281.481
281.656
281.838
282.026
282.219
282.417
282.619
282.826
283.038
283.255
283.476
283.703
283.935
284.172
284.414
284.66
284.911
285.164
285.421
285.679
285.939
286.199
286.458
286.715
286.971
287.224
287.474
287.72
287.963
288.201
288.435
288.664
288.888
289.108
289.322
289.531
289.736
289.935
290.128
290.317
290.501
290.68
290.854
291.023
291.188
291.348
291.503
291.654
291.8
291.943
292.081
292.215
292.346
292.473
292.597
292.717
292.834
292.948
293.059
293.167
293.272
293.374
293.474
293.571
293.665
293.757
293.847
293.934
294.02
294.103
294.184
294.264
294.342
294.419
294.496
294.571
294.647
294.722
294.798
294.875
294.953
295.031
295.111
295.191
295.272
295.353
295.435
295.516
295.596
295.676
295.755
295.833
295.908
295.983
296.055
296.125
296.189
280
279.999
280
280
280
280.001
280.002
280.004
280.006
280.01
280.015
280.022
280.032
280.046
280.064
280.087
280.116
280.153
280.199
280.254
280.32
280.398
280.488
280.591
280.706
280.832
280.969
281.116
281.271
281.434
281.603
281.777
281.956
282.138
282.323
282.51
282.7
282.89
283.083
283.277
283.472
283.67
283.87
284.073
284.279
284.488
284.701
284.918
285.138
285.363
285.591
285.822
286.055
286.291
286.527
286.764
287.001
287.237
287.471
287.704
287.934
288.161
288.385
288.606
288.823
289.036
289.245
289.45
289.65
289.846
290.037
290.224
290.406
290.584
290.757
290.926
291.091
291.251
291.406
291.558
291.705
291.848
291.988
292.123
292.255
292.383
292.508
292.629
292.748
292.863
292.975
293.084
293.191
293.295
293.396
293.494
293.59
293.683
293.774
293.863
293.949
294.034
294.116
294.197
294.276
294.354
294.43
294.506
294.581
294.655
294.73
294.806
294.882
294.958
295.036
295.115
295.194
295.274
295.355
295.435
295.516
295.596
295.675
295.753
295.83
295.905
295.979
296.051
296.121
296.185
280
280
280
280.001
280.003
280.005
280.009
280.015
280.024
280.037
280.054
280.077
280.106
280.144
280.192
280.25
280.32
280.403
280.498
280.607
280.728
280.861
281.004
281.157
281.318
281.485
281.657
281.832
282.011
282.191
282.372
282.554
282.736
282.917
283.098
283.279
283.458
283.637
283.816
283.994
284.172
284.351
284.531
284.712
284.895
285.08
285.268
285.459
285.653
285.851
286.053
286.258
286.465
286.676
286.888
287.102
287.316
287.531
287.746
287.96
288.172
288.383
288.592
288.799
289.002
289.203
289.4
289.594
289.785
289.971
290.154
290.333
290.508
290.679
290.846
291.009
291.168
291.323
291.474
291.621
291.764
291.904
292.039
292.172
292.3
292.426
292.548
292.667
292.783
292.896
293.007
293.114
293.219
293.321
293.42
293.517
293.612
293.704
293.794
293.881
293.967
294.05
294.132
294.212
294.29
294.367
294.442
294.517
294.591
294.665
294.74
294.814
294.889
294.965
295.042
295.119
295.198
295.277
295.357
295.436
295.516
295.595
295.674
295.751
295.827
295.902
295.975
296.047
296.116
296.18
280
280.001
280.003
280.008
280.015
280.026
280.042
280.065
280.097
280.139
280.193
280.259
280.341
280.437
280.548
280.673
280.813
280.964
281.126
281.295
281.472
281.652
281.836
282.02
282.205
282.39
282.573
282.754
282.933
283.11
283.285
283.457
283.626
283.793
283.958
284.121
284.282
284.441
284.599
284.756
284.912
285.068
285.224
285.381
285.54
285.7
285.862
286.027
286.195
286.366
286.541
286.72
286.902
287.087
287.275
287.465
287.657
287.85
288.045
288.239
288.433
288.627
288.819
289.01
289.2
289.387
289.572
289.754
289.934
290.111
290.284
290.454
290.621
290.785
290.945
291.101
291.254
291.404
291.55
291.692
291.831
291.966
292.098
292.227
292.352
292.474
292.594
292.71
292.824
292.934
293.042
293.148
293.251
293.351
293.449
293.544
293.637
293.728
293.816
293.903
293.987
294.069
294.15
294.229
294.306
294.382
294.456
294.53
294.604
294.677
294.75
294.823
294.898
294.972
295.048
295.125
295.202
295.28
295.359
295.438
295.516
295.595
295.672
295.749
295.824
295.898
295.971
296.042
296.111
296.174
280.002
280.009
280.023
280.046
280.081
280.13
280.197
280.282
280.388
280.514
280.659
280.822
281.001
281.19
281.388
281.592
281.797
282.003
282.206
282.406
282.603
282.794
282.981
283.163
283.339
283.511
283.678
283.841
284
284.154
284.305
284.453
284.597
284.739
284.879
285.016
285.151
285.284
285.417
285.548
285.679
285.809
285.94
286.071
286.204
286.338
286.474
286.613
286.755
286.9
287.049
287.202
287.358
287.518
287.682
287.848
288.018
288.189
288.362
288.537
288.712
288.888
289.064
289.239
289.414
289.587
289.759
289.929
290.097
290.263
290.426
290.587
290.746
290.901
291.054
291.203
291.35
291.493
291.633
291.77
291.904
292.035
292.163
292.288
292.409
292.528
292.644
292.758
292.868
292.976
293.082
293.185
293.286
293.384
293.48
293.574
293.665
293.754
293.841
293.926
294.009
294.09
294.17
294.247
294.324
294.398
294.472
294.545
294.618
294.69
294.762
294.834
294.907
294.981
295.055
295.131
295.207
295.284
295.362
295.439
295.517
295.594
295.671
295.746
295.821
295.894
295.966
296.037
296.105
296.168
280.026
280.086
280.178
280.308
280.474
280.674
280.903
281.154
281.419
281.689
281.957
282.219
282.472
282.712
282.939
283.154
283.357
283.549
283.731
283.903
284.067
284.224
284.374
284.518
284.656
284.79
284.919
285.044
285.165
285.283
285.399
285.512
285.622
285.731
285.838
285.944
286.049
286.153
286.256
286.359
286.462
286.565
286.669
286.773
286.879
286.987
287.097
287.21
287.326
287.446
287.569
287.697
287.828
287.964
288.104
288.247
288.394
288.543
288.696
288.85
289.007
289.164
289.323
289.482
289.641
289.8
289.958
290.116
290.272
290.427
290.58
290.731
290.88
291.027
291.171
291.313
291.453
291.59
291.724
291.856
291.984
292.11
292.234
292.354
292.472
292.587
292.7
292.81
292.917
293.023
293.126
293.226
293.325
293.421
293.514
293.606
293.696
293.783
293.869
293.952
294.034
294.113
294.192
294.268
294.343
294.417
294.49
294.561
294.633
294.704
294.775
294.846
294.918
294.99
295.064
295.138
295.213
295.288
295.365
295.441
295.517
295.593
295.669
295.744
295.818
295.89
295.961
296.031
296.099
296.161
280.485
281.031
281.596
282.147
282.657
283.11
283.497
283.822
284.096
284.329
284.529
284.705
284.861
285.002
285.131
285.25
285.361
285.466
285.566
285.66
285.751
285.839
285.923
286.005
286.084
286.162
286.239
286.314
286.388
286.461
286.533
286.605
286.676
286.748
286.819
286.89
286.961
287.033
287.105
287.178
287.251
287.326
287.402
287.48
287.56
287.641
287.726
287.813
287.904
287.998
288.097
288.2
288.307
288.419
288.536
288.656
288.781
288.909
289.041
289.176
289.313
289.453
289.594
289.737
289.88
290.025
290.169
290.313
290.457
290.6
290.743
290.884
291.023
291.161
291.298
291.432
291.564
291.694
291.822
291.948
292.071
292.192
292.31
292.426
292.54
292.651
292.76
292.866
292.971
293.073
293.173
293.271
293.367
293.46
293.552
293.642
293.729
293.815
293.899
293.98
294.06
294.139
294.216
294.291
294.365
294.437
294.509
294.579
294.649
294.719
294.789
294.859
294.929
295.001
295.073
295.145
295.219
295.293
295.368
295.443
295.518
295.593
295.667
295.741
295.814
295.885
295.956
296.025
296.092
296.153
294.769
293.249
291.949
290.914
290.105
289.482
289.008
288.657
288.407
288.222
288.081
287.971
287.883
287.813
287.756
287.712
287.677
287.652
287.634
287.622
287.615
287.612
287.613
287.618
287.626
287.637
287.652
287.668
287.688
287.709
287.732
287.758
287.786
287.815
287.847
287.88
287.915
287.952
287.991
288.032
288.075
288.12
288.167
288.217
288.269
288.324
288.382
288.443
288.508
288.578
288.651
288.73
288.813
288.901
288.994
289.092
289.194
289.3
289.411
289.526
289.643
289.764
289.888
290.013
290.141
290.269
290.399
290.53
290.66
290.791
290.922
291.052
291.181
291.31
291.437
291.563
291.687
291.81
291.931
292.05
292.167
292.282
292.395
292.506
292.615
292.722
292.827
292.93
293.031
293.129
293.226
293.321
293.414
293.505
293.594
293.682
293.767
293.851
293.932
294.012
294.091
294.167
294.243
294.316
294.389
294.46
294.53
294.599
294.668
294.737
294.805
294.874
294.943
295.012
295.083
295.154
295.226
295.299
295.372
295.446
295.519
295.593
295.666
295.738
295.81
295.88
295.95
296.018
296.084
296.145
297.843
297.491
296.955
296.312
295.614
294.905
294.22
293.572
292.967
292.428
291.959
291.553
291.202
290.899
290.636
290.409
290.215
290.046
289.897
289.765
289.648
289.545
289.453
289.372
289.301
289.238
289.184
289.136
289.094
289.059
289.029
289.004
288.983
288.968
288.956
288.948
288.944
288.944
288.947
288.953
288.963
288.976
288.992
289.012
289.035
289.062
289.092
289.126
289.164
289.207
289.255
289.308
289.366
289.429
289.497
289.571
289.65
289.734
289.822
289.915
290.012
290.113
290.217
290.324
290.434
290.546
290.66
290.775
290.892
291.009
291.127
291.245
291.363
291.481
291.598
291.714
291.83
291.944
292.057
292.169
292.279
292.388
292.494
292.6
292.703
292.805
292.905
293.004
293.1
293.195
293.289
293.38
293.47
293.558
293.644
293.728
293.811
293.893
293.972
294.05
294.126
294.201
294.275
294.347
294.417
294.487
294.555
294.623
294.691
294.757
294.824
294.891
294.959
295.027
295.095
295.165
295.235
295.306
295.377
295.449
295.521
295.593
295.664
295.735
295.806
295.875
295.943
296.01
296.076
296.136
297.996
297.984
297.948
297.867
297.714
297.469
297.132
296.718
296.251
295.757
295.262
294.783
294.331
293.911
293.524
293.165
292.833
292.529
292.254
292.004
291.777
291.571
291.386
291.219
291.068
290.931
290.806
290.692
290.587
290.493
290.407
290.33
290.26
290.196
290.139
290.089
290.043
290.004
289.969
289.94
289.915
289.894
289.878
289.867
289.859
289.856
289.858
289.864
289.874
289.89
289.911
289.937
289.969
290.006
290.049
290.098
290.153
290.213
290.278
290.348
290.423
290.503
290.587
290.674
290.765
290.859
290.956
291.054
291.155
291.258
291.361
291.466
291.571
291.677
291.783
291.888
291.994
292.099
292.203
292.306
292.409
292.51
292.61
292.709
292.806
292.902
292.997
293.09
293.182
293.273
293.362
293.449
293.535
293.619
293.702
293.784
293.864
293.942
294.019
294.094
294.168
294.241
294.312
294.382
294.451
294.519
294.586
294.652
294.717
294.782
294.847
294.913
294.978
295.044
295.111
295.178
295.246
295.315
295.384
295.454
295.524
295.594
295.664
295.733
295.802
295.87
295.937
296.003
296.067
296.126
298
298
297.999
297.997
297.991
297.975
297.941
297.871
297.748
297.56
297.306
296.995
296.645
296.274
295.896
295.521
295.157
294.808
294.477
294.165
293.873
293.6
293.345
293.104
292.879
292.671
292.478
292.299
292.134
291.982
291.843
291.714
291.594
291.484
291.381
291.287
291.201
291.122
291.049
290.983
290.922
290.868
290.819
290.775
290.737
290.704
290.676
290.653
290.635
290.623
290.617
290.616
290.621
290.632
290.649
290.673
290.702
290.738
290.779
290.826
290.878
290.935
290.998
291.064
291.135
291.21
291.288
291.369
291.453
291.539
291.627
291.717
291.809
291.901
291.994
292.088
292.183
292.277
292.371
292.465
292.559
292.652
292.744
292.835
292.926
293.015
293.104
293.191
293.278
293.363
293.447
293.53
293.612
293.692
293.771
293.849
293.925
294
294.074
294.147
294.218
294.288
294.357
294.424
294.491
294.557
294.621
294.685
294.749
294.812
294.875
294.938
295.001
295.065
295.13
295.195
295.261
295.327
295.394
295.462
295.529
295.597
295.665
295.733
295.8
295.866
295.931
295.996
296.059
296.117
298
298
298
298.001
298
298
297.999
297.997
297.991
297.977
297.947
297.888
297.787
297.637
297.437
297.193
296.918
296.622
296.317
296.011
295.71
295.417
295.134
294.863
294.603
294.356
294.122
293.901
293.692
293.493
293.305
293.128
292.962
292.807
292.661
292.526
292.4
292.283
292.173
292.071
291.975
291.887
291.806
291.731
291.662
291.598
291.541
291.489
291.443
291.403
291.369
291.342
291.32
291.305
291.296
291.294
291.298
291.308
291.325
291.348
291.377
291.411
291.451
291.496
291.546
291.6
291.658
291.721
291.786
291.855
291.927
292.001
292.077
292.156
292.235
292.316
292.398
292.481
292.564
292.648
292.731
292.815
292.898
292.982
293.064
293.146
293.228
293.309
293.389
293.468
293.547
293.624
293.701
293.777
293.851
293.925
293.997
294.069
294.139
294.208
294.276
294.343
294.409
294.474
294.538
294.601
294.664
294.725
294.786
294.847
294.908
294.969
295.03
295.091
295.153
295.215
295.279
295.343
295.407
295.472
295.537
295.603
295.669
295.734
295.799
295.863
295.927
295.99
296.051
296.108
298
298
298
298
298.001
298.001
298.001
298.001
298
298
297.999
297.997
297.992
297.98
297.954
297.905
297.823
297.701
297.539
297.341
297.117
296.875
296.624
296.368
296.113
295.862
295.616
295.378
295.148
294.927
294.714
294.51
294.315
294.129
293.952
293.783
293.622
293.469
293.324
293.188
293.06
292.94
292.828
292.722
292.623
292.531
292.445
292.366
292.292
292.225
292.164
292.11
292.062
292.02
291.986
291.958
291.937
291.922
291.915
291.913
291.918
291.929
291.946
291.969
291.997
292.03
292.068
292.111
292.158
292.208
292.262
292.32
292.38
292.442
292.507
292.574
292.643
292.713
292.784
292.856
292.929
293.002
293.076
293.15
293.224
293.297
293.371
293.445
293.518
293.59
293.662
293.734
293.805
293.875
293.945
294.014
294.081
294.149
294.215
294.28
294.345
294.408
294.471
294.533
294.594
294.654
294.714
294.772
294.831
294.889
294.947
295.005
295.064
295.122
295.181
295.241
295.302
295.363
295.424
295.487
295.549
295.612
295.675
295.738
295.801
295.863
295.925
295.986
296.046
296.101
298
298
298
298
298
298
298.001
298.001
298.001
298.001
298.001
298.001
298
298
298
297.998
297.993
297.983
297.962
297.921
297.854
297.754
297.622
297.459
297.274
297.072
296.86
296.642
296.423
296.205
295.99
295.779
295.573
295.373
295.18
294.993
294.812
294.638
294.472
294.312
294.158
294.011
293.87
293.736
293.61
293.491
293.378
293.273
293.173
293.08
292.994
292.914
292.841
292.774
292.714
292.662
292.616
292.577
292.545
292.519
292.501
292.489
292.483
292.483
292.489
292.501
292.518
292.54
292.567
292.599
292.634
292.674
292.717
292.763
292.812
292.864
292.918
292.974
293.032
293.092
293.153
293.215
293.278
293.342
293.406
293.47
293.535
293.6
293.666
293.731
293.796
293.861
293.925
293.99
294.053
294.117
294.179
294.242
294.303
294.364
294.425
294.484
294.543
294.601
294.659
294.716
294.772
294.828
294.884
294.939
294.994
295.049
295.104
295.16
295.216
295.273
295.33
295.388
295.447
295.506
295.566
295.626
295.686
295.746
295.806
295.866
295.925
295.984
296.042
296.096
298
298
298
298
298
298
298
298
298
298.001
298.001
298.001
298.001
298.001
298.001
298.001
298
298
298
297.998
297.995
297.987
297.969
297.936
297.882
297.801
297.692
297.557
297.402
297.232
297.05
296.863
296.672
296.481
296.29
296.102
295.917
295.735
295.558
295.386
295.219
295.057
294.9
294.749
294.604
294.463
294.328
294.198
294.075
293.958
293.848
293.745
293.648
293.558
293.475
293.398
293.329
293.267
293.211
293.163
293.121
293.086
293.058
293.036
293.02
293.01
293.006
293.008
293.015
293.027
293.043
293.065
293.09
293.119
293.152
293.187
293.226
293.268
293.312
293.358
293.406
293.456
293.507
293.559
293.613
293.667
293.723
293.779
293.835
293.892
293.949
294.007
294.064
294.121
294.179
294.236
294.293
294.35
294.406
294.462
294.518
294.573
294.627
294.681
294.735
294.788
294.841
294.893
294.945
294.997
295.049
295.101
295.153
295.206
295.258
295.312
295.366
295.42
295.476
295.531
295.588
295.644
295.701
295.759
295.816
295.873
295.93
295.986
296.042
296.094
298
298
298
298
298
298
298
298
298
298
298
298
298
298
298.001
298.001
298.001
298.001
298.001
298.001
298
298
298
297.999
297.996
297.99
297.976
297.951
297.907
297.842
297.753
297.641
297.51
297.365
297.209
297.045
296.878
296.708
296.538
296.369
296.201
296.035
295.873
295.714
295.559
295.407
295.26
295.118
294.98
294.846
294.717
294.593
294.474
294.363
294.258
294.16
294.069
293.985
293.908
293.837
293.774
293.717
293.667
293.623
293.586
293.556
293.531
293.512
293.499
293.491
293.489
293.491
293.498
293.51
293.525
293.544
293.567
293.593
293.623
293.654
293.689
293.725
293.764
293.805
293.847
293.89
293.935
293.981
294.028
294.076
294.124
294.173
294.223
294.273
294.323
294.373
294.424
294.474
294.525
294.575
294.625
294.675
294.725
294.774
294.824
294.873
294.921
294.97
295.018
295.066
295.114
295.163
295.211
295.26
295.309
295.359
295.409
295.46
295.512
295.564
295.617
295.67
295.724
295.777
295.832
295.886
295.94
295.993
296.047
296.096
298
298
298
298
298
298
298
298
298
298
298
298
298
298
298
298
298
298
298
298
298
298
298
298
298
298
298
297.999
297.997
297.993
297.983
297.963
297.93
297.878
297.806
297.713
297.603
297.478
297.343
297.199
297.051
296.9
296.746
296.593
296.44
296.288
296.139
295.991
295.847
295.706
295.568
295.433
295.303
295.176
295.054
294.937
294.826
294.723
294.626
294.535
294.451
294.375
294.304
294.241
294.184
294.133
294.088
294.05
294.017
293.99
293.968
293.952
293.941
293.934
293.933
293.935
293.942
293.952
293.966
293.983
294.003
294.025
294.051
294.079
294.109
294.14
294.174
294.209
294.246
294.284
294.322
294.362
294.403
294.445
294.487
294.53
294.573
294.617
294.661
294.705
294.749
294.793
294.838
294.882
294.926
294.97
295.015
295.059
295.103
295.147
295.191
295.235
295.28
295.324
295.37
295.415
295.462
295.509
295.556
295.605
295.654
295.703
295.753
295.803
295.854
295.905
295.955
296.006
296.057
296.104
298
298
298
298
298
298
298
298
298
298
298
298
298
298
298
298
298
298
298
298
298
298
298
298
298
298
298
298
298
298
298
298
297.998
297.995
297.988
297.974
297.949
297.909
297.851
297.775
297.682
297.575
297.457
297.331
297.199
297.062
296.924
296.784
296.644
296.505
296.367
296.23
296.096
295.964
295.834
295.709
295.587
295.469
295.355
295.248
295.146
295.051
294.963
294.881
294.805
294.735
294.672
294.615
294.564
294.518
294.479
294.444
294.415
294.391
294.372
294.358
294.348
294.342
294.34
294.342
294.347
294.356
294.368
294.382
294.399
294.418
294.44
294.464
294.489
294.517
294.545
294.576
294.607
294.64
294.673
294.708
294.743
294.779
294.816
294.853
294.891
294.929
294.967
295.006
295.044
295.083
295.122
295.161
295.201
295.24
295.28
295.32
295.36
295.4
295.441
295.483
295.525
295.568
295.611
295.655
295.7
295.745
295.791
295.838
295.884
295.932
295.979
296.026
296.073
296.118
298
298
298
298
298
298
298
298
298
298
298
298
298
298
298
298
298
298
298
298
298
298
298
298
298
298
298
298
298
298
298
298
298
298
298
298
297.999
297.997
297.992
297.983
297.964
297.934
297.889
297.828
297.75
297.658
297.555
297.443
297.325
297.203
297.077
296.95
296.822
296.693
296.566
296.439
296.314
296.192
296.072
295.956
295.844
295.735
295.632
295.534
295.441
295.356
295.276
295.202
295.134
295.071
295.015
294.963
294.917
294.877
294.841
294.81
294.784
294.762
294.745
294.731
294.722
294.716
294.714
294.714
294.718
294.725
294.734
294.746
294.76
294.776
294.794
294.814
294.835
294.858
294.883
294.909
294.935
294.963
294.992
295.022
295.052
295.083
295.115
295.147
295.18
295.213
295.246
295.28
295.314
295.348
295.383
295.418
295.453
295.489
295.525
295.562
295.6
295.638
295.677
295.717
295.757
295.798
295.84
295.882
295.924
295.967
296.011
296.055
296.098
296.14
298
298
298
298
298
298
298
298
298
298
298
298
298
298
298
298
298
298
298
298
298
298
298
298
298
298
298
298
298
298
298
298
298
298
298
298
298
298
298
298
298
297.998
297.995
297.989
297.976
297.954
297.92
297.871
297.807
297.729
297.64
297.541
297.436
297.326
297.212
297.096
296.979
296.861
296.743
296.627
296.512
296.4
296.29
296.184
296.082
295.984
295.89
295.801
295.718
295.641
295.569
295.503
295.441
295.385
295.334
295.288
295.246
295.209
295.177
295.148
295.124
295.104
295.088
295.075
295.065
295.059
295.055
295.055
295.057
295.062
295.069
295.078
295.089
295.102
295.116
295.133
295.15
295.17
295.19
295.212
295.234
295.258
295.282
295.307
295.333
295.36
295.387
295.415
295.443
295.472
295.501
295.531
295.561
295.592
295.623
295.655
295.688
295.721
295.756
295.79
295.826
295.862
295.899
295.937
295.975
296.014
296.053
296.093
296.133
296.171
298
298
298
298
298
298
298
298
298
298
298
298
298
298
298
298
298
298
298
298
298
298
298
298
298
298
298
298
298
298
298
298
298
298
298
298
298
298
298
298
298
298
298
298
298
297.999
297.998
297.993
297.985
297.97
297.944
297.906
297.855
297.79
297.714
297.628
297.535
297.436
297.333
297.228
297.121
297.013
296.906
296.8
296.695
296.594
296.495
296.399
296.307
296.218
296.134
296.054
295.979
295.909
295.845
295.784
295.729
295.678
295.631
295.589
295.551
295.517
295.487
295.461
295.438
295.419
295.403
295.39
295.38
295.373
295.369
295.367
295.367
295.369
295.374
295.38
295.389
295.399
295.41
295.423
295.438
295.453
295.47
295.488
295.507
295.526
295.547
295.568
295.59
295.613
295.636
295.66
295.685
295.71
295.737
295.763
295.791
295.819
295.848
295.878
295.908
295.94
295.972
296.004
296.038
296.072
296.107
296.142
296.178
296.212
298
298
298
298
298
298
298
298
298
298
298
298
298
298
298
298
298
298
298
298
298
298
298
298
298
298
298
298
298
298
298
298
298
298
298
298
298
298
298
298
298
298
298
298
298
298
298
298
298
298
297.999
297.996
297.991
297.981
297.963
297.935
297.896
297.844
297.78
297.706
297.624
297.536
297.443
297.348
297.252
297.155
297.058
296.963
296.869
296.777
296.689
296.603
296.52
296.44
296.364
296.292
296.224
296.161
296.102
296.048
295.997
295.95
295.908
295.869
295.834
295.802
295.774
295.749
295.727
295.709
295.693
295.68
295.669
295.661
295.655
295.652
295.65
295.651
295.653
295.657
295.663
295.67
295.679
295.689
295.7
295.713
295.726
295.74
295.756
295.772
295.789
295.807
295.826
295.846
295.866
295.887
295.909
295.932
295.955
295.98
296.005
296.031
296.058
296.086
296.114
296.143
296.173
296.204
296.235
296.265
298
298
298
298
298
298
298
298
298
298
298
298
298
298
298
298
298
298
298
298
298
298
298
298
298
298
298
298
298
298
298
298
298
298
298
298
298
298
298
298
298
298
298
298
298
298
298
298
298
298
298
298
298
298
298
297.998
297.995
297.989
297.978
297.958
297.929
297.889
297.837
297.775
297.704
297.627
297.545
297.461
297.375
297.289
297.203
297.118
297.035
296.953
296.873
296.796
296.722
296.65
296.581
296.516
296.455
296.397
296.343
296.293
296.247
296.204
296.164
296.128
296.095
296.065
296.039
296.015
295.994
295.975
295.959
295.946
295.934
295.925
295.918
295.913
295.91
295.909
295.909
295.911
295.914
295.919
295.925
295.932
295.941
295.95
295.961
295.972
295.985
295.998
296.012
296.028
296.044
296.061
296.079
296.098
296.117
296.138
296.159
296.182
296.205
296.229
296.254
296.28
296.306
296.332
298
298
298
298
298
298
298
298
298
298
298
298
298
298
298
298
298
298
298
298
298
298
298
298
298
298
298
298
298
298
298
298
298
298
298
298
298
298
298
298
298
298
298
298
298
298
298
298
298
298
298
298
298
298
298
298
298
298
298
297.999
297.998
297.994
297.987
297.975
297.955
297.925
297.886
297.836
297.777
297.711
297.641
297.568
297.493
297.417
297.341
297.266
297.192
297.12
297.049
296.98
296.913
296.848
296.786
296.727
296.67
296.618
296.568
296.522
296.479
296.439
296.402
296.368
296.337
296.309
296.283
296.26
296.239
296.22
296.204
296.19
296.178
296.168
296.16
296.154
296.149
296.146
296.144
296.144
296.145
296.147
296.151
296.156
296.162
296.169
296.177
296.186
296.196
296.207
296.219
296.232
296.246
296.261
296.277
296.294
296.311
296.33
296.35
296.37
296.392
296.413
298
298
298
298
298
298
298
298
298
298
298
298
298
298
298
298
298
298
298
298
298
298
298
298
298
298
298
298
298
298
298
298
298
298
298
298
298
298
298
298
298
298
298
298
298
298
298
298
298
298
298
298
298
298
298
298
298
298
298
298
298
298
298
298
297.999
297.997
297.994
297.987
297.974
297.954
297.926
297.889
297.843
297.79
297.732
297.669
297.605
297.539
297.473
297.407
297.342
297.277
297.214
297.152
297.092
297.034
296.977
296.923
296.872
296.823
296.778
296.735
296.695
296.657
296.622
296.59
296.56
296.533
296.508
296.485
296.465
296.446
296.43
296.415
296.402
296.391
296.382
296.374
296.368
296.363
296.36
296.358
296.357
296.357
296.359
296.362
296.366
296.371
296.377
296.384
296.392
296.401
296.411
296.422
296.434
296.447
296.461
296.477
296.493
296.509
298
298
298
298
298
298
298
298
298
298
298
298
298
298
298
298
298
298
298
298
298
298
298
298
298
298
298
298
298
298
298
298
298
298
298
298
298
298
298
298
298
298
298
298
298
298
298
298
298
298
298
298
298
298
298
298
298
298
298
298
298
298
298
298
298
298
298
298
298
297.999
297.997
297.994
297.987
297.976