/*--------------------------------*- C++ -*----------------------------------*\
| =========                 |                                                 |
| \\      /  F ield         | OpenFOAM: The Open Source CFD Toolbox           |
|  \\    /   O peration     | Version:  1.7.x                                 |
|   \\  /    A nd           | Web:      www.OpenFOAM.com                      |
|    \\/     M anipulation  |                                                 |
\*---------------------------------------------------------------------------*/
FoamFile
{
    version     2.0;
    format      ascii;
    class       volVectorField;
    location    "2400";
    object      U;
}
// * * * * * * * * * * * * * * * * * * * * * * * * * * * * * * * * * * * * * //

dimensions      [0 1 -1 0 0 0 0];

internalField   nonuniform List<vector> 
5460
(
(30.9655 0.0026843 0)
(30.9513 0.00379276 -1.1886e-18)
(30.9204 0.00439997 0)
(30.8822 0.00463852 -7.7521e-17)
(30.843 0.00472217 -9.03659e-16)
(30.8032 0.0047399 -4.59289e-15)
(30.7626 0.00471604 -2.9294e-14)
(30.7215 0.0046773 -1.82809e-13)
(30.6799 0.00463848 -1.06881e-11)
(30.6379 0.00460381 -4.93698e-12)
(30.5954 0.00457509 -2.44265e-12)
(30.5524 0.00455309 -1.29481e-12)
(30.5088 0.00453773 -7.36213e-13)
(30.4645 0.00452876 -4.5121e-13)
(30.4194 0.00452579 -2.57664e-13)
(30.3735 0.00452865 -1.10634e-13)
(30.3267 0.00453826 -1.52832e-16)
(30.2789 0.00455645 6.78213e-14)
(30.23 0.00458523 -2.0763e-13)
(30.1797 0.00462704 -3.04577e-14)
(30.1281 0.00468519 1.73059e-13)
(30.0746 0.00476401 3.07939e-13)
(30.0192 0.00486903 3.15286e-13)
(29.9613 0.00500796 2.56243e-13)
(29.9005 0.0051911 4.0257e-13)
(29.836 0.00543106 5.41489e-13)
(29.767 0.00574328 7.6555e-13)
(29.6923 0.0061468 1.04688e-12)
(29.6105 0.00666444 1.31674e-12)
(29.5196 0.00732323 1.50915e-12)
(29.4175 0.00815415 1.58284e-12)
(29.3012 0.00918979 1.46357e-12)
(29.1675 0.0104607 1.2415e-12)
(29.0125 0.01199 5.4428e-13)
(28.832 0.013785 1.99938e-13)
(28.6217 0.0158283 1.71441e-12)
(28.3774 0.0180714 -2.66755e-12)
(28.0958 0.0204314 -7.06773e-13)
(27.7749 0.0227981 -9.43626e-14)
(27.4142 0.0250491 1.12519e-11)
(27.015 0.0270682 3.07885e-12)
(26.5804 0.0287638 1.08949e-12)
(26.1146 0.0300783 5.88856e-13)
(25.6229 0.03099 3.61675e-13)
(25.1108 0.0315083 8.91744e-14)
(24.5839 0.0316656 -5.97766e-14)
(24.0475 0.0315085 2.96055e-13)
(23.5062 0.0310889 1.17233e-13)
(22.9641 0.0304583 -2.78016e-13)
(22.4248 0.0296647 -1.24067e-12)
(21.8908 0.0287507 -6.83353e-13)
(21.3647 0.0277525 8.8332e-13)
(20.848 0.0266999 4.64653e-13)
(20.3422 0.025617 -6.77122e-12)
(19.8482 0.0245228 -8.41078e-13)
(19.3667 0.0234318 -9.18486e-14)
(18.8982 0.0223547 -3.20277e-14)
(18.443 0.0212995 2.83675e-13)
(18.0013 0.0202725 2.22355e-13)
(17.573 0.0192786 4.12239e-13)
(17.1581 0.0183211 1.55704e-12)
(16.7565 0.0174021 7.06311e-13)
(16.3678 0.016523 -8.83956e-12)
(15.9918 0.0156835 -1.27406e-12)
(15.6282 0.0148828 -5.27672e-13)
(15.2766 0.0141199 -5.87303e-12)
(14.9368 0.0133938 -1.11369e-12)
(14.6084 0.0127036 4.93077e-12)
(14.2911 0.0120485 1.22586e-12)
(13.9845 0.0114275 7.70906e-13)
(13.6881 0.0108395 3.71861e-13)
(13.4018 0.0102832 1.30726e-12)
(13.125 0.00975678 5.59107e-14)
(12.8574 0.00925877 -9.99358e-13)
(12.5987 0.00878761 -1.37893e-13)
(12.3485 0.00834179 8.96839e-14)
(12.1066 0.00791995 1.10222e-13)
(11.8726 0.00752086 1.96791e-14)
(11.6462 0.00714339 -1.71192e-12)
(11.4272 0.0067864 1.52186e-12)
(11.2152 0.00644871 6.43642e-13)
(11.01 0.00612925 1.89775e-13)
(10.8112 0.005827 1.56764e-13)
(10.6188 0.00554097 9.24285e-13)
(10.4324 0.00527019 5.92043e-12)
(10.2518 0.00501376 1.50924e-12)
(10.0767 0.00477088 4.5573e-13)
(9.90711 0.00454082 -3.59625e-13)
(9.74266 0.00432284 4.6227e-14)
(9.58319 0.00411625 1.16893e-12)
(9.42854 0.00392041 6.59948e-13)
(9.27851 0.00373474 -3.15717e-13)
(9.13294 0.00355869 1.6866e-12)
(8.99166 0.00339173 3.23318e-13)
(8.85452 0.00323331 7.73493e-14)
(8.72137 0.00308298 -9.34677e-13)
(8.59206 0.0029403 -4.84986e-13)
(8.46646 0.00280487 -1.96976e-12)
(8.34443 0.0026763 -1.11507e-13)
(8.22585 0.00255418 6.77183e-13)
(8.11059 0.00243817 6.60921e-13)
(7.99855 0.00232796 -2.63354e-12)
(7.8896 0.00222325 1.40752e-13)
(7.78365 0.00212374 -2.43468e-13)
(7.68058 0.00202916 -3.13724e-12)
(7.58031 0.00193926 -8.86528e-13)
(7.48274 0.0018538 4.81879e-12)
(7.38778 0.00177257 -1.00956e-14)
(7.29534 0.00169536 -9.13146e-13)
(7.20535 0.00162194 1.24294e-12)
(7.11771 0.0015521 -7.83174e-12)
(7.03237 0.00148563 -1.42686e-12)
(6.94923 0.00142234 -4.26782e-14)
(6.86825 0.00136205 -4.1363e-14)
(6.78933 0.00130456 -2.90275e-13)
(6.71243 0.00124969 -2.22044e-13)
(6.63747 0.00119728 -1.21443e-13)
(6.56439 0.00114716 7.94174e-13)
(6.49315 0.00109923 -1.91644e-13)
(6.42367 0.00105332 -8.24634e-14)
(6.35591 0.00100936 -1.27877e-12)
(6.28982 0.000966974 1.66501e-12)
(6.22539 0.000926479 7.12626e-12)
(6.16251 0.000886117 4.57106e-13)
(6.10144 0.000848808 1.73445e-13)
(6.04161 0.000804315 9.31336e-14)
(5.98487 0.000773141 2.76959e-12)
(5.92738 0.000692175 1.11938e-13)
(5.88122 0.000694583 1.54281e-12)
(5.82049 0.000394896 -3.26162e-13)
(30.8665 0.00584639 0)
(30.8542 0.00923708 -2.40851e-18)
(30.8247 0.0109266 -1.58397e-17)
(30.7875 0.0116408 -2.64983e-16)
(30.7491 0.0119852 -3.09708e-15)
(30.7098 0.0121164 -1.58308e-14)
(30.6696 0.0121012 -1.14884e-13)
(30.6287 0.0120305 -3.50702e-13)
(30.5874 0.0119507 -2.9923e-12)
(30.5455 0.0118753 -4.55829e-12)
(30.5031 0.0118113 -2.9102e-12)
(30.4601 0.0117626 -1.84933e-12)
(30.4165 0.01173 -1.20225e-12)
(30.3721 0.0117137 -8.18632e-13)
(30.3269 0.0117133 -4.07668e-13)
(30.2809 0.0117287 -6.00605e-14)
(30.2338 0.0117629 1.98726e-13)
(30.1857 0.0118212 3.36519e-13)
(30.1363 0.0119094 -9.63709e-13)
(30.0855 0.0120346 1.26881e-13)
(30.0329 0.0122062 7.10201e-13)
(29.9784 0.0124364 9.94822e-13)
(29.9214 0.0127407 8.65323e-13)
(29.8614 0.0131404 6.30134e-13)
(29.7979 0.0136636 1.30544e-12)
(29.7299 0.0143447 1.63453e-12)
(29.6564 0.0152253 2.24405e-12)
(29.5761 0.0163562 2.97246e-12)
(29.4872 0.0177974 3.64423e-12)
(29.3876 0.0196183 4.10939e-12)
(29.2751 0.0218962 4.26959e-12)
(29.1465 0.0247083 3.84265e-12)
(28.9989 0.0281217 3.22291e-12)
(28.8285 0.0321789 9.08852e-13)
(28.632 0.0368788 4.68737e-13)
(28.4059 0.0421602 -8.42051e-12)
(28.1473 0.0478896 -1.59146e-12)
(27.8542 0.0538607 -7.01195e-13)
(27.5256 0.0598108 -3.93457e-15)
(27.1616 0.0654536 1.04045e-11)
(26.7637 0.070519 5.10905e-12)
(26.3347 0.0747905 2.31287e-12)
(25.878 0.078127 1.50462e-12)
(25.398 0.0804694 9.61822e-13)
(24.8994 0.0818322 1.98957e-13)
(24.3869 0.0822867 -1.87725e-13)
(23.8652 0.0819413 9.32775e-13)
(23.3384 0.0809207 2.83166e-13)
(22.8103 0.0793519 -8.75644e-13)
(22.2841 0.0773544 -3.75565e-12)
(21.7625 0.0750363 -1.89368e-12)
(21.2476 0.0724906 2.75742e-12)
(20.7414 0.0697947 1.31629e-12)
(20.245 0.0670114 -1.02155e-11)
(19.7597 0.0641908 -1.64206e-12)
(19.286 0.0613716 -1.85104e-13)
(18.8247 0.0585825 -9.21085e-14)
(18.3759 0.0558451 8.22896e-13)
(17.94 0.0531768 6.11178e-13)
(17.517 0.0505909 1.17507e-12)
(17.1069 0.0480965 4.53764e-12)
(16.7096 0.0457002 1.99297e-12)
(16.3248 0.0434055 -1.15462e-11)
(15.9524 0.0412124 -3.05479e-12)
(15.592 0.0391192 -1.42124e-12)
(15.2434 0.0371233 -3.78698e-12)
(14.9062 0.0352226 -2.8523e-12)
(14.5802 0.0334149 5.44918e-12)
(14.2651 0.031698 3.25755e-12)
(13.9605 0.0300698 2.21676e-12)
(13.666 0.0285276 1.05257e-12)
(13.3813 0.0270678 3.77813e-12)
(13.106 0.0256861 7.54407e-14)
(12.8398 0.0243785 -2.90914e-12)
(12.5824 0.0231409 -3.56643e-13)
(12.3334 0.0219696 2.64268e-13)
(12.0926 0.020861 3.14861e-13)
(11.8596 0.019812 5.87095e-14)
(11.6341 0.0188196 -4.9369e-12)
(11.4159 0.0178808 4.37351e-12)
(11.2047 0.0169926 1.80477e-12)
(11.0002 0.0161521 5.29961e-13)
(10.8021 0.0153569 4.32068e-13)
(10.6103 0.0146042 2.6814e-12)
(10.4244 0.0138915 8.08981e-12)
(10.2443 0.0132165 4.16134e-12)
(10.0698 0.012577 1.2653e-12)
(9.90059 0.0119713 -1.04966e-12)
(9.73655 0.0113973 1.37592e-13)
(9.57747 0.0108532 3.35372e-12)
(9.42317 0.0103374 1.86625e-12)
(9.27347 0.00984827 -9.14801e-13)
(9.12821 0.00938449 4.86331e-12)
(8.98722 0.00894459 8.92782e-13)
(8.85034 0.0085272 2.16858e-13)
(8.71744 0.00813105 -2.67427e-12)
(8.58836 0.00775506 -1.36626e-12)
(8.46298 0.00739814 -5.64677e-12)
(8.34115 0.00705925 -3.11435e-13)
(8.22276 0.00673737 1.90107e-12)
(8.10768 0.00643158 1.9048e-12)
(7.9958 0.00614104 -7.53535e-12)
(7.88701 0.00586498 4.45249e-13)
(7.7812 0.00560263 -6.97049e-13)
(7.67827 0.00535327 -8.99023e-12)
(7.57813 0.00511623 -2.49644e-12)
(7.48067 0.00489089 5.16112e-12)
(7.38582 0.00467669 -1.10269e-13)
(7.29349 0.00447307 -2.62525e-12)
(7.20359 0.00427944 3.57992e-12)
(7.11605 0.00409526 -6.97563e-12)
(7.03079 0.00391996 -3.99205e-12)
(6.94774 0.00375304 -1.04109e-13)
(6.86683 0.00359401 -1.17393e-13)
(6.78799 0.00344237 -8.2697e-13)
(6.71116 0.00329764 -6.29732e-13)
(6.63626 0.00315939 -3.44603e-13)
(6.56325 0.0030272 2.2739e-12)
(6.49206 0.00290076 -5.48968e-13)
(6.42263 0.00277963 -2.3073e-13)
(6.35492 0.00266367 -3.6631e-12)
(6.28888 0.00255185 4.75736e-12)
(6.2245 0.00244501 1.04614e-11)
(6.16166 0.00233855 1.23354e-12)
(6.10063 0.00224005 4.91895e-13)
(6.04084 0.00212284 2.627e-13)
(5.98413 0.00204016 4.87807e-12)
(5.92668 0.00182761 2.93415e-13)
(5.88054 0.00183136 4.38629e-12)
(5.81985 0.00104562 -9.36931e-13)
(30.6615 0.00875204 -1.48277e-19)
(30.6482 0.0145905 -3.31336e-18)
(30.6182 0.0171815 -4.50397e-17)
(30.5809 0.0182492 -7.62125e-16)
(30.5425 0.0188527 -9.43236e-15)
(30.5034 0.0191109 -4.81375e-14)
(30.4633 0.0191157 -5.19303e-13)
(30.4224 0.0190296 -7.84107e-13)
(30.3811 0.0189274 -1.05089e-12)
(30.3393 0.0188289 3.80408e-12)
(30.2968 0.0187459 2.21124e-12)
(30.2538 0.018686 1.21947e-12)
(30.21 0.0186521 5.92254e-13)
(30.1654 0.0186461 2.15002e-13)
(30.1199 0.0186692 9.45993e-13)
(30.0733 0.0187235 1.28867e-12)
(30.0256 0.0188163 1.40929e-12)
(29.9765 0.0189593 1.31051e-12)
(29.9257 0.0191653 -3.23453e-12)
(29.873 0.0194494 3.28592e-12)
(29.8179 0.0198315 2.62377e-12)
(29.76 0.0203366 2.19358e-12)
(29.6986 0.0209955 8.73108e-13)
(29.6329 0.0218488 2.56756e-13)
(29.5619 0.022949 3.89084e-12)
(29.4845 0.024358 7.72214e-12)
(29.3992 0.0261482 4.12901e-12)
(29.3041 0.0284027 4.86982e-12)
(29.1974 0.0312128 5.44522e-12)
(29.0766 0.0346731 5.78143e-12)
(28.9393 0.0388741 5.79712e-12)
(28.783 0.0438858 4.41329e-12)
(28.605 0.0497419 3.60587e-12)
(28.4031 0.0564235 -2.9976e-12)
(28.1754 0.063846 1.00437e-13)
(27.9205 0.071854 7.69564e-13)
(27.6376 0.0802254 9.1501e-13)
(27.3266 0.0886814 9.3294e-13)
(26.9877 0.096909 9.69241e-13)
(26.6219 0.104589 3.14827e-12)
(26.2304 0.111428 2.70038e-12)
(25.8153 0.117189 1.36865e-12)
(25.3787 0.121709 1.90214e-12)
(24.9236 0.124909 1.24838e-12)
(24.453 0.126791 -2.49615e-12)
(23.9702 0.127425 -4.11242e-13)
(23.4787 0.126936 2.1599e-12)
(22.9818 0.125475 9.6301e-14)
(22.4824 0.123205 -1.98842e-12)
(21.9835 0.120285 -7.70542e-12)
(21.4875 0.116866 -2.71208e-12)
(20.9964 0.113081 6.20845e-12)
(20.5121 0.109044 1.92856e-12)
(20.0358 0.10485 -3.657e-12)
(19.5687 0.100576 -2.88269e-13)
(19.1118 0.0962839 1.38963e-14)
(18.6656 0.0920186 -1.71204e-13)
(18.2306 0.0878163 1.47206e-12)
(17.8072 0.0837062 8.82258e-13)
(17.3955 0.079711 1.97342e-12)
(16.9957 0.0758469 6.821e-12)
(16.6077 0.0721257 3.01534e-12)
(16.2313 0.0685546 -7.45206e-12)
(15.8665 0.0651352 -3.6012e-12)
(15.5131 0.0618657 -2.06165e-12)
(15.1708 0.0587433 -2.42046e-12)
(14.8395 0.0557657 -4.39892e-12)
(14.5187 0.0529301 -2.72068e-12)
(14.2084 0.0502337 5.49736e-12)
(13.9081 0.0476738 3.84469e-12)
(13.6176 0.0452468 1.69631e-12)
(13.3365 0.0429472 4.39455e-12)
(13.0645 0.0407688 -4.2296e-13)
(12.8014 0.0387056 -3.06365e-12)
(12.5468 0.0367517 -3.51917e-13)
(12.3004 0.0349012 4.94973e-13)
(12.0619 0.0331487 5.3021e-13)
(11.831 0.0314894 1.15465e-13)
(11.6076 0.0299189 -8.62272e-12)
(11.3912 0.0284325 1.02731e-12)
(11.1816 0.0270256 2.82362e-12)
(10.9787 0.0256938 8.15151e-13)
(10.7821 0.024433 2.50684e-12)
(10.5916 0.0232394 4.81573e-12)
(10.4069 0.0221088 5.05709e-12)
(10.228 0.0210376 6.63316e-12)
(10.0545 0.0200226 1.90707e-12)
(9.88628 0.0190608 -1.90993e-12)
(9.72315 0.0181492 2.69528e-13)
(9.56491 0.0172848 5.74672e-12)
(9.41139 0.0164652 3.02364e-12)
(9.26241 0.0156879 -1.62329e-12)
(9.11783 0.0149506 8.48674e-12)
(8.97746 0.0142512 1.30259e-12)
(8.84117 0.0135874 3.40128e-13)
(8.70882 0.0129573 -4.53464e-12)
(8.58025 0.0123591 -2.18079e-12)
(8.45534 0.0117913 -9.64371e-12)
(8.33395 0.011252 9.94318e-13)
(8.21598 0.0107397 4.44129e-12)
(8.10128 0.0102529 3.32496e-12)
(7.98977 0.00979041 -1.27825e-11)
(7.88131 0.00935087 1.02313e-12)
(7.77582 0.00893311 -1.18554e-12)
(7.67319 0.00853599 -1.5332e-11)
(7.57332 0.00815845 -3.94234e-12)
(7.47613 0.00779951 -1.85482e-12)
(7.38153 0.00745829 -2.96029e-13)
(7.28942 0.00713388 -4.52895e-12)
(7.19974 0.00682537 6.19705e-12)
(7.11241 0.00653188 -5.96836e-12)
(7.02734 0.00625252 -6.54031e-12)
(6.94447 0.00598651 -6.11532e-14)
(6.86373 0.00573304 -1.93388e-13)
(6.78504 0.00549133 -1.3788e-12)
(6.70836 0.00526063 -1.03234e-12)
(6.6336 0.00504024 -5.66183e-13)
(6.56072 0.00482951 3.86529e-12)
(6.48966 0.00462793 -9.35224e-13)
(6.42035 0.00443481 -3.58592e-13)
(6.35276 0.00424991 -6.23909e-12)
(6.28682 0.00407163 8.04209e-12)
(6.22254 0.00390124 7.55278e-12)
(6.1598 0.00373153 1.82885e-12)
(6.09886 0.00357432 8.07706e-13)
(6.03914 0.0033877 4.20339e-13)
(5.98252 0.00325503 8.13166e-12)
(5.92514 0.00291792 3.32129e-13)
(5.87907 0.00291917 7.25677e-12)
(5.81845 0.00167453 -1.60983e-12)
(30.3448 0.0124375 2.16926e-19)
(30.3301 0.0207646 -7.71043e-18)
(30.2988 0.0241083 -1.16622e-16)
(30.2609 0.0254698 -1.99402e-15)
(30.2222 0.0263156 -2.62261e-14)
(30.1828 0.0266714 -1.32722e-13)
(30.1425 0.0266723 -2.90418e-12)
(30.1015 0.0265592 -2.44649e-12)
(30.06 0.026429 -4.40574e-12)
(30.0179 0.0263063 -2.18833e-12)
(29.9752 0.0262093 -2.30541e-13)
(29.9318 0.0261501 -2.21085e-13)
(29.8876 0.0261356 -2.78508e-13)
(29.8423 0.0261715 -2.71577e-13)
(29.7958 0.0262639 5.25195e-12)
(29.748 0.0264207 4.08819e-12)
(29.6984 0.0266584 3.26382e-12)
(29.6468 0.027001 2.63414e-12)
(29.5926 0.0274748 1.23382e-12)
(29.5354 0.0281106 1.50734e-12)
(29.4744 0.0289473 1.601e-12)
(29.4087 0.0300318 1.52706e-12)
(29.3373 0.0314197 -3.6408e-12)
(29.259 0.0331804 -2.32582e-12)
(29.1724 0.0353977 3.19936e-12)
(29.0757 0.0381627 1.73186e-12)
(28.9671 0.0415711 6.97687e-12)
(28.8446 0.0457175 9.23536e-12)
(28.7062 0.0506844 5.68809e-12)
(28.55 0.0565314 5.6014e-12)
(28.3743 0.0632841 5.41936e-12)
(28.1778 0.0709187 7.22449e-13)
(27.9596 0.0793542 2.05932e-12)
(27.7194 0.088455 1.34096e-12)
(27.4575 0.0980361 5.45551e-12)
(27.1745 0.107877 4.554e-12)
(26.871 0.117738 3.58073e-12)
(26.5481 0.127365 2.76404e-12)
(26.2066 0.1365 2.12953e-12)
(25.8473 0.144894 1.19325e-12)
(25.4712 0.152314 1.04313e-12)
(25.0792 0.158563 -3.3236e-13)
(24.6723 0.16349 2.93798e-12)
(24.2518 0.167006 1.13928e-12)
(23.8193 0.169085 -9.29908e-13)
(23.3767 0.169768 -8.06527e-13)
(22.926 0.169155 -2.6435e-12)
(22.4696 0.167385 -1.25445e-12)
(22.0097 0.164617 -4.04768e-12)
(21.5484 0.161021 -2.13305e-12)
(21.0879 0.156766 -1.90927e-12)
(20.6301 0.152009 1.86726e-12)
(20.1765 0.146888 1.11434e-12)
(19.7287 0.141522 -1.34954e-12)
(19.2878 0.136012 1.56898e-12)
(18.8547 0.130441 1.44543e-13)
(18.4303 0.124872 -3.70494e-13)
(18.0153 0.119355 2.39454e-12)
(17.61 0.113933 8.98386e-13)
(17.2148 0.10864 2.8618e-12)
(16.83 0.103502 5.56385e-12)
(16.4556 0.0985358 3.13029e-12)
(16.0917 0.0937555 -7.70854e-12)
(15.7382 0.0891656 -3.75898e-12)
(15.3951 0.0847657 -2.481e-12)
(15.0622 0.0805545 -1.35377e-12)
(14.7393 0.0765302 -4.39499e-12)
(14.4264 0.0726906 -1.4637e-12)
(14.1231 0.0690333 2.34547e-12)
(13.8293 0.0655556 3.86094e-12)
(13.5448 0.0622536 2.14063e-12)
(13.2691 0.0591209 4.384e-12)
(13.0021 0.0561497 -1.92455e-12)
(12.7435 0.0533324 -2.63342e-12)
(12.4931 0.0506617 1.54275e-13)
(12.2505 0.0481299 8.07094e-13)
(12.0156 0.0457302 7.5556e-13)
(11.788 0.0434563 2.08142e-13)
(11.5675 0.0413023 -8.01394e-12)
(11.3539 0.0392624 -1.92091e-12)
(11.1468 0.0373303 2.70975e-12)
(10.9462 0.0355003 9.94984e-13)
(10.7518 0.0337669 -5.76088e-13)
(10.5633 0.0321249 2.92264e-12)
(10.3805 0.0305689 4.9573e-12)
(10.2033 0.029094 4.86186e-12)
(10.0314 0.0276959 2.23559e-12)
(9.86463 0.0263705 -1.79401e-12)
(9.70286 0.0251138 4.90044e-13)
(9.54589 0.0239218 8.48069e-12)
(9.39355 0.0227911 4.04656e-12)
(9.24567 0.0217185 -2.55933e-12)
(9.1021 0.0207008 4.92268e-12)
(8.96269 0.019735 1.35784e-12)
(8.82729 0.0188183 4.38739e-13)
(8.69575 0.0179478 -6.59401e-12)
(8.56795 0.0171213 -2.84632e-12)
(8.44376 0.0163364 -1.41584e-11)
(8.32305 0.0155909 -3.98694e-12)
(8.20569 0.0148825 4.67385e-13)
(8.09159 0.0142094 3.95766e-12)
(7.98062 0.0135696 -1.27959e-11)
(7.87268 0.0129615 -1.23875e-12)
(7.76766 0.0123834 -1.73556e-12)
(7.66548 0.0118339 -1.58694e-11)
(7.56604 0.0113113 -5.00375e-12)
(7.46924 0.0108144 -4.78336e-12)
(7.37501 0.010342 -4.55385e-13)
(7.28326 0.00989276 -6.71183e-12)
(7.1939 0.00946551 3.17164e-12)
(7.10687 0.00905901 -5.13227e-12)
(7.02209 0.00867204 -1.65532e-12)
(6.9395 0.00830352 1.79124e-13)
(6.85901 0.00795234 -2.71173e-13)
(6.78057 0.00761742 -1.95651e-12)
(6.70411 0.00729774 -1.41891e-12)
(6.62957 0.00699231 -7.81223e-13)
(6.55689 0.00670025 5.62542e-12)
(6.48602 0.00642085 -1.38932e-12)
(6.41689 0.00615317 -4.48342e-13)
(6.34947 0.00589686 -9.08754e-12)
(6.28369 0.00564971 1.16263e-11)
(6.21956 0.00541347 6.28616e-12)
(6.15696 0.0051782 2.30657e-12)
(6.09616 0.00496011 1.11402e-12)
(6.03658 0.00470151 5.63888e-13)
(5.98007 0.00451701 5.53556e-12)
(5.92281 0.00405058 2.63356e-13)
(5.87683 0.00404938 5.56894e-12)
(5.81632 0.00232795 -2.40695e-12)
(29.9075 0.0169333 -2.76594e-18)
(29.8902 0.0276047 -4.10677e-17)
(29.8569 0.0313657 -3.15841e-16)
(29.8181 0.0328987 -4.18343e-15)
(29.7788 0.0339323 -1.52001e-12)
(29.7389 0.0343274 -1.82503e-13)
(29.6982 0.0342913 -6.31888e-13)
(29.6569 0.0341415 -9.33955e-13)
(29.615 0.0339856 -1.39415e-12)
(29.5724 0.0338529 -1.24764e-12)
(29.5291 0.0337702 -1.11422e-12)
(29.4848 0.033757 -1.00884e-12)
(29.4393 0.0338284 -9.34033e-13)
(29.3922 0.0340002 -8.32412e-13)
(29.3433 0.0342894 2.07551e-12)
(29.292 0.0347172 2.03117e-12)
(29.2378 0.0353185 1.91152e-12)
(29.18 0.0361391 1.73975e-12)
(29.1178 0.0372288 1.42091e-12)
(29.0501 0.0386446 1.2355e-12)
(28.9757 0.0404537 1.12815e-12)
(28.8934 0.0427315 1.04225e-12)
(28.8015 0.0455597 1.88162e-13)
(28.6985 0.0490285 -2.29252e-13)
(28.5827 0.0532312 8.81536e-14)
(28.4523 0.0582479 4.09799e-13)
(28.3058 0.0641361 1.60162e-12)
(28.1418 0.0709217 2.35764e-12)
(27.9596 0.0785866 2.91514e-12)
(27.7587 0.087066 3.30929e-12)
(27.5392 0.0962528 3.5212e-12)
(27.3018 0.105998 3.43371e-12)
(27.0474 0.116125 3.27869e-12)
(26.7773 0.126444 2.7892e-12)
(26.4927 0.136765 3.31742e-12)
(26.1951 0.146911 6.46119e-12)
(25.8855 0.156723 4.72923e-12)
(25.5648 0.166048 3.58081e-12)
(25.2336 0.174737 2.66684e-12)
(24.8925 0.182641 -1.06188e-12)
(24.5416 0.189608 -1.65425e-13)
(24.181 0.195496 -3.02388e-12)
(23.8109 0.200177 -5.27612e-13)
(23.4314 0.203552 -2.3753e-13)
(23.0431 0.205565 -3.23367e-12)
(22.6466 0.20621 -1.03872e-12)
(22.2429 0.20554 -2.30806e-12)
(21.8333 0.203649 -1.74831e-12)
(21.4192 0.200664 -2.61064e-12)
(21.0021 0.196733 -1.97992e-12)
(20.5838 0.192018 -1.62228e-12)
(20.1657 0.186677 1.45218e-13)
(19.7494 0.180858 3.20785e-13)
(19.3363 0.174695 -6.67576e-13)
(18.9274 0.168303 2.57258e-13)
(18.5239 0.161782 -3.0535e-13)
(18.1267 0.155211 -7.99868e-13)
(17.7366 0.148655 5.94924e-13)
(17.3541 0.14217 4.03397e-13)
(16.9798 0.135804 4.93624e-12)
(16.6141 0.129591 4.5183e-12)
(16.2571 0.12356 3.04774e-12)
(15.9091 0.11773 -6.15981e-12)
(15.5701 0.112111 -3.39393e-12)
(15.2402 0.106706 -2.75678e-12)
(14.9194 0.101518 -9.28772e-14)
(14.6077 0.0965457 -3.77843e-12)
(14.3048 0.0917899 -1.84329e-12)
(14.0108 0.0872494 6.29247e-13)
(13.7255 0.0829226 3.38118e-12)
(13.4486 0.0788063 2.19118e-12)
(13.1801 0.0748939 3.32726e-12)
(12.9196 0.0711772 7.70956e-14)
(12.667 0.0676477 -1.01043e-12)
(12.422 0.0642972 8.70405e-13)
(12.1845 0.061117 1.17614e-12)
(11.9542 0.0580992 9.8374e-13)
(11.7308 0.0552363 3.19305e-13)
(11.5143 0.0525218 -7.65396e-12)
(11.3043 0.0499486 -4.81274e-12)
(11.1006 0.0475092 2.24066e-12)
(10.9031 0.0451967 9.90466e-13)
(10.7115 0.0430048 9.53486e-13)
(10.5257 0.0409269 2.10387e-12)
(10.3453 0.0389566 2.9655e-12)
(10.1704 0.0370878 3.91479e-12)
(10.0006 0.0353152 2.445e-12)
(9.8358 0.0336339 -1.30083e-12)
(9.67585 0.0320389 8.68177e-13)
(9.52056 0.0305254 1.17039e-11)
(9.36978 0.0290889 4.82639e-12)
(9.22336 0.0277257 -7.19893e-13)
(9.08115 0.0264317 3.1415e-12)
(8.94299 0.0252033 1.30785e-12)
(8.80876 0.0240368 5.26775e-13)
(8.67832 0.0229288 -9.84054e-12)
(8.55155 0.0218764 -3.2725e-12)
(8.42831 0.0208767 -1.94467e-11)
(8.30849 0.0199269 -6.64096e-12)
(8.19197 0.0190242 -1.52701e-12)
(8.07864 0.0181661 1.78356e-12)
(7.9684 0.0173503 -9.80626e-12)
(7.86114 0.0165747 -2.60871e-12)
(7.75677 0.0158373 -2.26384e-12)
(7.65519 0.0151361 -1.82084e-11)
(7.55631 0.0144692 -5.719e-12)
(7.46004 0.0138349 -2.91323e-12)
(7.3663 0.0132318 -4.72015e-13)
(7.27501 0.0126581 -4.49744e-12)
(7.1861 0.0121125 1.49339e-12)
(7.09948 0.0115932 -1.40211e-12)
(7.01508 0.0110988 3.09806e-12)
(6.93285 0.0106279 5.11285e-13)
(6.85271 0.0101791 -3.59958e-13)
(6.77459 0.00975108 -2.58566e-12)
(6.69843 0.00934244 -1.78165e-12)
(6.62418 0.00895199 -9.87438e-13)
(6.55177 0.00857858 7.62689e-12)
(6.48115 0.00822133 -3.23352e-12)
(6.41226 0.00787903 -4.8147e-13)
(6.34507 0.00755123 -8.30976e-12)
(6.27951 0.00723513 1.56128e-11)
(6.21558 0.00693294 5.61478e-12)
(6.15317 0.00663198 2.67844e-12)
(6.09255 0.00635292 1.4097e-12)
(6.03314 0.0060221 6.92902e-13)
(5.97679 0.00578571 1.76652e-12)
(5.91969 0.00518922 1.16818e-13)
(5.87383 0.00518618 4.61514e-12)
(5.81347 0.00298462 -3.30266e-12)
(29.3327 0.0223465 -1.69613e-17)
(29.3126 0.0351241 -2.57955e-16)
(29.2773 0.0388724 -1.16111e-15)
(29.2378 0.0405054 -1.0135e-14)
(29.1982 0.0417138 -2.23386e-13)
(29.1578 0.0421135 -3.42369e-13)
(29.1166 0.0420357 -4.44738e-13)
(29.0747 0.041873 -5.32673e-13)
(29.032 0.0417357 -6.64475e-13)
(28.9883 0.0416633 -7.52521e-13)
(28.9433 0.0416976 -8.04646e-13)
(28.8966 0.0418733 -8.32239e-13)
(28.8476 0.0422234 -8.46761e-13)
(28.7957 0.0427853 -8.32143e-13)
(28.7402 0.043599 3.43371e-15)
(28.6801 0.0447106 4.83601e-13)
(28.6145 0.0461854 6.64436e-13)
(28.5421 0.0481014 6.80891e-13)
(28.4616 0.0505374 6.04773e-13)
(28.3714 0.0535748 5.13017e-13)
(28.2699 0.0572969 4.82193e-13)
(28.1557 0.0617796 4.83167e-13)
(28.0273 0.0670817 2.91049e-13)
(27.8835 0.0732448 -4.95371e-15)
(27.7233 0.0802836 -1.47252e-13)
(27.5462 0.088168 -2.17854e-14)
(27.3524 0.0968231 3.6524e-13)
(27.1422 0.106133 8.14693e-13)
(26.9167 0.115947 1.24427e-12)
(26.6772 0.126092 1.59696e-12)
(26.4252 0.1364 1.89558e-12)
(26.1623 0.146704 4.95047e-12)
(25.8902 0.156855 3.83413e-12)
(25.61 0.166732 3.08345e-12)
(25.3231 0.176233 2.62511e-12)
(25.0304 0.185282 3.77231e-12)
(24.7324 0.193826 3.74858e-12)
(24.4296 0.201809 3.22095e-12)
(24.1222 0.209173 2.51068e-12)
(23.81 0.215845 1.496e-13)
(23.4928 0.221736 -2.15851e-13)
(23.1701 0.226746 -2.0031e-12)
(22.8417 0.230771 -1.36347e-12)
(22.507 0.233706 -1.13702e-12)
(22.1657 0.235471 -2.67975e-12)
(21.8179 0.236015 1.53977e-14)
(21.4637 0.235339 -2.14925e-12)
(21.1035 0.233483 -2.10849e-12)
(20.7382 0.230522 -2.13796e-12)
(20.3687 0.226565 -1.80925e-12)
(19.9961 0.221745 -1.48462e-12)
(19.6216 0.216203 -5.6889e-13)
(19.2465 0.21008 -2.17567e-13)
(18.872 0.20351 -5.50629e-13)
(18.4993 0.196616 -5.89924e-13)
(18.1295 0.189508 -9.25089e-13)
(17.7634 0.182275 -1.39183e-12)
(17.402 0.174996 -5.99466e-13)
(17.046 0.16774 -2.11741e-13)
(16.6961 0.160567 3.64012e-12)
(16.3527 0.153523 3.94124e-12)
(16.0163 0.146645 2.90331e-12)
(15.6871 0.139963 -3.47417e-12)
(15.3653 0.133493 -2.8708e-12)
(15.0513 0.127244 -3.04694e-12)
(14.7449 0.121221 -2.61163e-12)
(14.4464 0.11543 -2.59207e-12)
(14.1558 0.109874 -2.01923e-12)
(13.8729 0.104554 -3.66902e-13)
(13.5978 0.0994705 3.36942e-12)
(13.3303 0.0946226 2.16555e-12)
(13.0704 0.0900045 2.81915e-12)
(12.8178 0.0856083 1.05195e-12)
(12.5725 0.0814257 1.27625e-14)
(12.3342 0.0774483 1.70294e-12)
(12.1029 0.0736672 1.56381e-12)
(11.8782 0.0700737 1.20217e-12)
(11.6601 0.0666602 4.49373e-13)
(11.4484 0.0634194 -8.34817e-12)
(11.2429 0.0603436 -8.1916e-12)
(11.0433 0.0574246 1.68256e-12)
(10.8496 0.0546546 1.02545e-12)
(10.6616 0.0520265 1.15678e-12)
(10.479 0.0495329 1.80122e-12)
(10.3017 0.0471664 2.67601e-12)
(10.1295 0.0449201 3.37319e-12)
(9.96233 0.0427879 2.62105e-12)
(9.79995 0.0407641 -2.73473e-13)
(9.64224 0.0388429 1.24531e-12)
(9.48904 0.0370188 1.03776e-11)
(9.3402 0.0352865 5.18391e-12)
(9.19558 0.0336416 4.51038e-13)
(9.05505 0.0320795 2.24023e-12)
(8.91846 0.0305958 1.24381e-12)
(8.78569 0.0291863 6.23741e-13)
(8.65661 0.0278468 -9.43189e-12)
(8.5311 0.026574 -3.34475e-12)
(8.40905 0.0253645 -2.12634e-11)
(8.29033 0.0242149 -8.51053e-12)
(8.17485 0.0231219 -3.13324e-12)
(8.06249 0.0220826 -3.24027e-13)
(7.95316 0.0210943 -9.12648e-12)
(7.84675 0.0201544 -3.51845e-12)
(7.74318 0.0192605 -2.72836e-12)
(7.64234 0.0184102 -1.78373e-11)
(7.54416 0.0176013 -6.02638e-12)
(7.44855 0.0168318 -1.76987e-12)
(7.35543 0.0160998 -4.46608e-13)
(7.26472 0.0154035 -3.19521e-12)
(7.17635 0.0147411 5.01636e-13)
(7.09024 0.0141105 2.67185e-13)
(7.00633 0.0135101 4.93483e-12)
(6.92455 0.012938 7.21627e-13)
(6.84483 0.0123928 -4.71845e-13)
(6.76711 0.0118726 -3.31016e-12)
(6.69134 0.011376 -2.1125e-12)
(6.61744 0.0109014 -1.18401e-12)
(6.54537 0.0104474 9.95062e-12)
(6.47507 0.0100131 -2.71913e-12)
(6.40648 0.00959683 -4.43071e-13)
(6.33957 0.00919819 -7.39847e-12)
(6.27427 0.00881374 1.67839e-11)
(6.2106 0.00844614 5.04094e-12)
(6.14844 0.00808001 2.9195e-12)
(6.08804 0.00774044 1.69586e-12)
(6.02885 0.00733788 8.13852e-13)
(5.9727 0.00705002 -1.08879e-12)
(5.91579 0.00632397 -1.50527e-15)
(5.87008 0.0063196 4.02802e-12)
(5.80991 0.00363913 -5.21785e-12)
(28.6038 0.0292344 -1.04172e-16)
(28.5788 0.0436146 -1.88715e-15)
(28.5407 0.0467286 -6.32828e-15)
(28.5002 0.0483946 -3.98799e-14)
(28.4599 0.0497566 -1.63753e-12)
(28.4186 0.0501333 -1.1361e-12)
(28.3763 0.0500448 -7.95108e-13)
(28.3329 0.0499505 -5.85522e-13)
(28.2878 0.0499676 -6.46376e-13)
(28.2406 0.0501675 -6.80003e-13)
(28.1904 0.050623 -6.93428e-13)
(28.1364 0.0513963 -6.96116e-13)
(28.0776 0.0525507 -7.0017e-13)
(28.0127 0.0541557 -6.64876e-13)
(27.9403 0.0562817 2.47667e-12)
(27.8591 0.0590015 1.78878e-12)
(27.7675 0.0624031 8.95662e-13)
(27.664 0.0665744 3.58423e-13)
(27.5471 0.0715797 4.51677e-14)
(27.4157 0.0774583 -1.17252e-13)
(27.2689 0.0842201 6.16641e-14)
(27.1062 0.0918346 1.70853e-13)
(26.9277 0.100226 -2.64453e-13)
(26.7339 0.109289 -9.01772e-13)
(26.5259 0.11889 -1.00631e-12)
(26.3051 0.128869 -3.16408e-13)
(26.0731 0.139054 9.19742e-14)
(25.8318 0.149276 3.69311e-13)
(25.5828 0.15938 5.81757e-13)
(25.3277 0.169234 7.16197e-13)
(25.0681 0.178742 8.67262e-13)
(24.805 0.187836 2.33633e-12)
(24.5395 0.196466 2.5492e-12)
(24.2722 0.204609 2.331e-12)
(24.0036 0.212252 1.49504e-12)
(23.734 0.219398 3.28119e-12)
(23.4634 0.226059 3.15537e-12)
(23.1917 0.232238 2.62631e-12)
(22.9186 0.237928 1.98373e-12)
(22.6438 0.243098 -1.86537e-14)
(22.3666 0.247695 -6.63249e-13)
(22.0865 0.251649 -2.86618e-12)
(21.8026 0.25487 -1.74471e-12)
(21.5145 0.257258 -1.86501e-12)
(21.2212 0.258711 -3.71922e-12)
(20.9225 0.25915 -1.35561e-12)
(20.618 0.258529 -2.55194e-12)
(20.3076 0.256836 -2.09194e-12)
(19.9915 0.254096 -1.91305e-12)
(19.6703 0.250367 -1.65779e-12)
(19.3446 0.245741 -1.37035e-12)
(19.0153 0.240332 -8.52805e-13)
(18.6833 0.23426 -5.33217e-13)
(18.3497 0.227647 -5.95368e-13)
(18.0155 0.220614 -1.35671e-12)
(17.6817 0.213272 -1.57883e-12)
(17.3494 0.205717 -2.10082e-12)
(17.0194 0.198036 -1.50788e-12)
(16.6925 0.190311 -7.79291e-13)
(16.3695 0.182611 4.82007e-12)
(16.051 0.174993 3.60233e-12)
(15.7375 0.167505 2.71929e-12)
(15.4295 0.160186 -3.51421e-12)
(15.1272 0.153061 -2.41306e-12)
(14.8311 0.146144 -3.47826e-12)
(14.5413 0.139448 -1.22831e-12)
(14.2579 0.132984 -1.66153e-12)
(13.9812 0.126758 -2.27039e-12)
(13.7112 0.120776 -1.00572e-12)
(13.4478 0.115043 1.73793e-12)
(13.1912 0.109558 2.16304e-12)
(12.9412 0.10432 2.58327e-12)
(12.6979 0.0993215 1.53768e-12)
(12.461 0.0945548 6.55359e-13)
(12.2305 0.0900126 2.65678e-12)
(12.0064 0.0856865 1.92278e-12)
(11.7884 0.0815677 1.39545e-12)
(11.5764 0.0776488 5.80251e-13)
(11.3703 0.0739225 -6.88675e-12)
(11.17 0.0703809 -8.84412e-12)
(10.9753 0.0670153 -8.32562e-14)
(10.7861 0.0638176 1.15911e-12)
(10.6022 0.0607802 1.36713e-12)
(10.4235 0.0578952 1.72436e-12)
(10.2497 0.0551545 2.57542e-12)
(10.0809 0.0525506 3.04416e-12)
(9.91678 0.0500768 2.82853e-12)
(9.75727 0.0477268 3.04111e-13)
(9.60221 0.0454942 1.5658e-12)
(9.45147 0.0433728 1.08004e-11)
(9.30493 0.0413569 5.25764e-12)
(9.16245 0.0394413 1.20085e-12)
(9.02391 0.0376211 1.79267e-12)
(8.88918 0.0358913 1.19309e-12)
(8.75814 0.0342469 7.39585e-13)
(8.63068 0.0326835 -1.07365e-11)
(8.50668 0.0311972 -3.07653e-12)
(8.38604 0.0297841 -2.09985e-11)
(8.26864 0.0284404 -9.6962e-12)
(8.15439 0.0271623 -4.39286e-12)
(8.04319 0.0259465 -1.77374e-12)
(7.93494 0.0247899 -9.26696e-12)
(7.82954 0.0236896 -4.14564e-12)
(7.72692 0.0226427 -3.11604e-12)
(7.62697 0.0216466 -1.90987e-11)
(7.52963 0.0206987 -5.96725e-12)
(7.4348 0.0197967 -1.01822e-12)
(7.34242 0.0189384 -4.29058e-13)
(7.2524 0.0181218 -2.42149e-12)
(7.16468 0.0173446 -1.10601e-13)
(7.07918 0.0166047 1.84234e-12)
(6.99585 0.0158999 6.8536e-12)
(6.91461 0.0152283 7.91811e-13)
(6.8354 0.014588 -6.14206e-13)
(6.75816 0.0139771 -4.19528e-12)
(6.68284 0.0133937 -2.40096e-12)
(6.60937 0.0128361 -1.37186e-12)
(6.5377 0.0123027 9.857e-12)
(6.46778 0.0117923 -3.73284e-12)
(6.39955 0.011303 -3.08046e-13)
(6.33298 0.0108344 -6.39105e-12)
(6.268 0.0103824 1.68044e-11)
(6.20463 0.00995012 4.34904e-12)
(6.14276 0.00951951 2.98544e-12)