/*--------------------------------*- C++ -*----------------------------------*\
| =========                 |                                                 |
| \\      /  F ield         | OpenFOAM: The Open Source CFD Toolbox           |
|  \\    /   O peration     | Version:  1.7.x                                 |
|   \\  /    A nd           | Web:      www.OpenFOAM.com                      |
|    \\/     M anipulation  |                                                 |
\*---------------------------------------------------------------------------*/
FoamFile
{
    version     2.0;
    format      ascii;
    class       volScalarField;
    location    "3800";
    object      alphat;
}
// * * * * * * * * * * * * * * * * * * * * * * * * * * * * * * * * * * * * * //

dimensions      [1 -1 -1 0 0 0 0];

internalField   nonuniform List<scalar> 
5460
(
0.00102546
0.0010252
0.00102496
0.00102474
0.00102456
0.00102445
0.0010244
0.00102442
0.00102451
0.00102465
0.00102487
0.00102515
0.0010255
0.00102593
0.00102644
0.00102707
0.00102783
0.00102876
0.00102992
0.00103139
0.00103324
0.0010356
0.00103864
0.00104254
0.00104758
0.00105405
0.00106238
0.00107307
0.00108677
0.00110429
0.00112664
0.00115505
0.00119101
0.00123624
0.0012926
0.00136192
0.00144572
0.00154491
0.00165958
0.00178881
0.00193077
0.00208292
0.0022423
0.00240583
0.00257063
0.00273412
0.00289419
0.00304921
0.003198
0.00333974
0.003474
0.00360051
0.00371934
0.0038308
0.0039349
0.00403182
0.00412224
0.00420624
0.00428393
0.00435554
0.00442138
0.00448194
0.00453768
0.00458905
0.00463626
0.00467939
0.00471842
0.0047534
0.00478447
0.00481202
0.00483646
0.00485825
0.0048777
0.00489493
0.00491034
0.00492347
0.00493483
0.00494436
0.00495219
0.00495851
0.0049635
0.00496729
0.00496997
0.0049716
0.00497218
0.00497175
0.0049703
0.00496787
0.00496449
0.00496023
0.00495514
0.00494928
0.00494272
0.00493549
0.00492766
0.00491926
0.00491031
0.00490086
0.00489095
0.00488061
0.00486986
0.00485874
0.00484727
0.00483544
0.0048233
0.00481081
0.00479799
0.00478482
0.00477132
0.00475747
0.00474327
0.00472872
0.00471385
0.0046987
0.00468331
0.00466773
0.00465203
0.00463625
0.0046205
0.00460483
0.00458928
0.00457392
0.00455879
0.00454387
0.00452921
0.00451476
0.00450053
0.00448642
0.00447332
0.00446486
0.00101118
0.0010112
0.00101121
0.00101122
0.00101126
0.00101133
0.00101146
0.00101163
0.00101184
0.00101211
0.00101242
0.0010128
0.00101324
0.00101374
0.00101434
0.00101506
0.00101592
0.00101697
0.00101828
0.00101993
0.00102201
0.00102465
0.00102803
0.00103237
0.00103791
0.00104502
0.00105413
0.00106582
0.0010808
0.00110001
0.00112457
0.00115587
0.00119549
0.00124514
0.00130651
0.00138107
0.00146985
0.00157322
0.00169084
0.0018216
0.00196372
0.00211486
0.00227241
0.00243363
0.0025959
0.00275687
0.00291454
0.00306737
0.00321418
0.00335415
0.00348686
0.00361199
0.00372963
0.00383986
0.00394298
0.0040392
0.00412889
0.00421222
0.00428931
0.00436039
0.00442576
0.00448589
0.00454125
0.00459227
0.00463917
0.00468202
0.0047208
0.00475556
0.00478644
0.00481381
0.0048381
0.00485975
0.00487907
0.00489618
0.00491135
0.00492449
0.00493576
0.0049452
0.00495295
0.0049592
0.00496412
0.00496784
0.00497047
0.00497203
0.00497257
0.00497209
0.0049706
0.00496813
0.00496471
0.00496042
0.0049553
0.00494942
0.00494283
0.00493558
0.00492773
0.00491931
0.00491034
0.00490088
0.00489095
0.0048806
0.00486985
0.00485871
0.00484723
0.0048354
0.00482324
0.00481075
0.00479792
0.00478475
0.00477124
0.0047574
0.00474319
0.00472864
0.00471378
0.00469862
0.00468324
0.00466765
0.00465195
0.00463617
0.00462042
0.00460475
0.00458919
0.00457383
0.00455869
0.00454376
0.00452908
0.00451462
0.00450038
0.00448627
0.00447316
0.00446469
0.00098597
0.000986072
0.000986192
0.000986356
0.000986563
0.00098681
0.0009871
0.000987432
0.000987798
0.000988202
0.000988655
0.000989162
0.000989736
0.000990394
0.000991159
0.000992069
0.000993169
0.000994521
0.000996204
0.000998322
0.001001
0.00100442
0.00100878
0.00101437
0.00102152
0.00103072
0.0010426
0.00105795
0.00107776
0.00110322
0.00113565
0.00117648
0.00122707
0.00128862
0.001362
0.0014477
0.00154574
0.00165575
0.00177695
0.00190821
0.00204808
0.00219484
0.00234656
0.00250116
0.0026566
0.00281094
0.00296243
0.00310968
0.00325153
0.00338713
0.00351604
0.00363785
0.00375268
0.00386028
0.00396108
0.00405544
0.00414347
0.0042253
0.00430106
0.00437095
0.00443527
0.00449446
0.00454898
0.00459924
0.00464546
0.0046877
0.00472594
0.00476022
0.00479067
0.00481767
0.00484162
0.00486296
0.004882
0.00489887
0.0049137
0.00492668
0.00493775
0.00494701
0.00495459
0.00496068
0.00496545
0.00496903
0.00497153
0.00497297
0.0049734
0.00497281
0.00497123
0.00496867
0.00496519
0.00496082
0.00495564
0.00494971
0.00494307
0.00493577
0.00492788
0.00491942
0.00491041
0.00490092
0.00489097
0.00488058
0.00486981
0.00485864
0.00484714
0.00483529
0.00482312
0.00481061
0.00479778
0.00478459
0.00477108
0.00475722
0.00474301
0.00472846
0.00471361
0.00469845
0.00468306
0.00466748
0.00465178
0.004636
0.00462024
0.00460456
0.00458899
0.00457363
0.00455847
0.00454352
0.00452882
0.00451434
0.00450007
0.00448594
0.00447282
0.00446432
0.000953429
0.000953639
0.000953937
0.000954329
0.000954786
0.000955268
0.000955774
0.000956304
0.000956855
0.000957433
0.000958057
0.000958743
0.000959515
0.000960403
0.000961449
0.000962711
0.000964261
0.000966194
0.000968633
0.000971744
0.000975708
0.000980866
0.000987599
0.000996307
0.00100759
0.00102224
0.00104125
0.00106573
0.00109684
0.00113575
0.00118349
0.00124084
0.00130829
0.00138597
0.00147371
0.00157108
0.0016775
0.00179225
0.00191453
0.00204349
0.00217815
0.00231742
0.00246007
0.00260472
0.00274993
0.00289427
0.00303632
0.00317494
0.00330908
0.00343778
0.00356068
0.00367727
0.00378757
0.00389125
0.00398851
0.00407987
0.00416529
0.00424482
0.00431854
0.00438663
0.00444936
0.00450713
0.00456039
0.00460952
0.00465473
0.00469606
0.0047335
0.00476707
0.00479689
0.00482333
0.00484678
0.00486768
0.00488629
0.00490282
0.00491724
0.00492988
0.00494067
0.00494965
0.00495699
0.00496285
0.00496739
0.00497077
0.00497308
0.00497435
0.00497461
0.00497387
0.00497215
0.00496947
0.00496587
0.0049614
0.00495613
0.00495012
0.0049434
0.00493604
0.00492808
0.00491957
0.00491051
0.00490096
0.00489097
0.00488055
0.00486973
0.00485854
0.00484701
0.00483513
0.00482294
0.00481041
0.00479755
0.00478435
0.00477083
0.00475696
0.00474274
0.00472818
0.00471333
0.00469818
0.00468279
0.00466722
0.00465151
0.00463573
0.00461996
0.00460427
0.0045887
0.00457332
0.00455813
0.00454316
0.00452843
0.00451392
0.00449961
0.00448545
0.00447232
0.00446378
0.000915583
0.000915913
0.000916398
0.000916989
0.000917645
0.000918329
0.000919038
0.000919775
0.000920534
0.000921323
0.000922174
0.00092312
0.000924206
0.000925491
0.000927058
0.000929013
0.000931494
0.000934685
0.00093883
0.000944255
0.000951242
0.000960593
0.000973166
0.000989403
0.00101018
0.00103658
0.00106966
0.00111034
0.00115933
0.00121704
0.00128358
0.00135877
0.00144222
0.00153335
0.00163154
0.00173612
0.00184648
0.00196201
0.00208216
0.00220639
0.00233409
0.00246461
0.00259717
0.00273087
0.00286478
0.00299786
0.00312903
0.00325749
0.00338236
0.00350263
0.00361796
0.00372804
0.00383248
0.00393104
0.00402385
0.00411133
0.00419334
0.00426986
0.00434093
0.00440669
0.00446736
0.00452331
0.00457495
0.00462262
0.00466654
0.00470671
0.00474312
0.00477577
0.0048048
0.00483053
0.00485334
0.00487366
0.00489172
0.00490782
0.00492177
0.00493396
0.00494437
0.00495301
0.00496002
0.00496559
0.00496986
0.00497298
0.00497504
0.00497609
0.00497614
0.00497521
0.00497331
0.00497047
0.00496673
0.00496213
0.00495675
0.00495063
0.00494381
0.00493636
0.00492832
0.00491973
0.00491061
0.004901
0.00489095
0.00488048
0.00486961
0.00485838
0.00484681
0.00483489
0.00482267
0.00481011
0.00479723
0.00478402
0.00477047
0.00475659
0.00474237
0.00472781
0.00471296
0.00469781
0.00468242
0.00466685
0.00465114
0.00463536
0.00461958
0.00460388
0.00458829
0.00457289
0.00455767
0.00454267
0.0045279
0.00451335
0.004499
0.0044848
0.00447164
0.00446306
0.000870228
0.000871036
0.000871923
0.000872807
0.000873684
0.00087457
0.000875477
0.000876417
0.000877398
0.000878444
0.000879618
0.000880997
0.000882681
0.000884805
0.000887554
0.00089117
0.00089597
0.000902365
0.000910877
0.000922148
0.000936791
0.000955747
0.000980329
0.00101116
0.00104861
0.0010933
0.00114565
0.00120577
0.00127351
0.00134852
0.00143027
0.00151814
0.00161151
0.00170976
0.00181234
0.00191878
0.00202866
0.00214161
0.00225732
0.00237548
0.0024957
0.00261755
0.00274051
0.00286397
0.00298726
0.00310965
0.00323028
0.00334864
0.00346408
0.00357578
0.00368316
0.00378602
0.00388401
0.00397686
0.00406475
0.00414782
0.00422591
0.00429896
0.00436698
0.00443003
0.00448832
0.00454215
0.00459191
0.00463788
0.00468029
0.00471911
0.00475431
0.0047859
0.004814
0.0048389
0.00486097
0.00488063
0.00489802
0.00491354
0.00492703
0.00493871
0.00494868
0.00495691
0.00496355
0.00496877
0.00497273
0.00497555
0.00497732
0.0049781
0.0049779
0.00497675
0.00497464
0.00497162
0.00496771
0.00496296
0.00495744
0.00495119
0.00494425
0.0049367
0.00492857
0.00491989
0.00491068
0.00490101
0.00489089
0.00488035
0.00486943
0.00485814
0.00484653
0.00483457
0.00482231
0.00480972
0.00479681
0.00478357
0.00477001
0.00475612
0.00474189
0.00472732
0.00471247
0.00469733
0.00468194
0.00466637
0.00465066
0.00463488
0.00461909
0.00460338
0.00458777
0.00457234
0.00455709
0.00454206
0.00452723
0.00451263
0.00449824
0.00448398
0.00447079
0.00446216
0.000815071
0.000816035
0.000817109
0.000818176
0.00081922
0.000820254
0.000821313
0.000822448
0.000823714
0.000825206
0.000827081
0.000829539
0.000832841
0.000837332
0.000843454
0.00085175
0.000862861
0.000877514
0.000896481
0.000920534
0.000950351
0.000986347
0.00102909
0.00107906
0.00113605
0.00119967
0.00126949
0.00134509
0.00142596
0.00151161
0.00160149
0.00169508
0.00179194
0.00189166
0.00199391
0.00209843
0.00220502
0.0023135
0.00242371
0.00253545
0.00264848
0.00276245
0.00287698
0.00299157
0.00310573
0.00321889
0.00333053
0.00343996
0.00354669
0.00365041
0.00375038
0.00384623
0.00393795
0.00402522
0.00410814
0.0041867
0.00426074
0.00433019
0.00439499
0.00445519
0.00451094
0.00456251
0.00461025
0.00465441
0.00469519
0.00473255
0.00476645
0.0047969
0.004824
0.004848
0.00486928
0.0048882
0.00490491
0.00491972
0.00493271
0.00494387
0.00495337
0.00496116
0.0049674
0.00497224
0.00497585
0.00497834
0.0049798
0.00498028
0.00497981
0.0049784
0.00497607
0.00497284
0.00496874
0.00496382
0.00495814
0.00495175
0.00494469
0.00493702
0.00492877
0.00492
0.00491071
0.00490095
0.00489076
0.00488015
0.00486916
0.00485782
0.00484615
0.00483415
0.00482184
0.00480921
0.00479627
0.00478301
0.00476942
0.00475552
0.00474128
0.00472671
0.00471186
0.00469672
0.00468133
0.00466577
0.00465006
0.00463428
0.00461848
0.00460277
0.00458713
0.00457166
0.00455638
0.0045413
0.00452643
0.00451176
0.00449733
0.004483
0.00446976
0.00446108
0.000743072
0.000744402
0.000745747
0.000747015
0.000748237
0.000749471
0.00075085
0.000752566
0.000754849
0.000758012
0.000762469
0.000768716
0.000777356
0.00078908
0.000804621
0.000824705
0.000849981
0.000880971
0.000918022
0.000961291
0.00101076
0.00106618
0.00112711
0.00119345
0.00126503
0.00134113
0.00142118
0.00150476
0.0015915
0.00168105
0.00177305
0.00186722
0.00196329
0.00206107
0.00216037
0.00226111
0.00236322
0.00246661
0.00257122
0.00267693
0.00278353
0.00289072
0.00299818
0.00310546
0.00321216
0.00331782
0.0034221
0.00352422
0.00362368
0.00372051
0.00381407
0.00390396
0.00399014
0.00407239
0.00415071
0.00422506
0.00429529
0.0043613
0.00442302
0.00448045
0.00453373
0.00458308
0.00462882
0.00467118
0.00471033
0.00474621
0.00477881
0.00480811
0.00483419
0.0048573
0.00487777
0.00489595
0.00491202
0.0049261
0.00493849
0.00494917
0.00495818
0.00496551
0.00497134
0.0049758
0.00497904
0.00498119
0.00498232
0.00498249
0.00498174
0.00498006
0.00497749
0.00497404
0.00496974
0.00496464
0.00495879
0.00495225
0.00494505
0.00493726
0.0049289
0.00492002
0.00491063
0.00490078
0.00489051
0.00487983
0.00486878
0.00485737
0.00484564
0.00483359
0.00482124
0.00480857
0.0047956
0.00478231
0.0047687
0.00475478
0.00474053
0.00472597
0.00471111
0.00469598
0.0046806
0.00466504
0.00464933
0.00463356
0.00461776
0.00460202
0.00458635
0.00457085
0.00455553
0.00454039
0.00452547
0.00451073
0.00449625
0.00448185
0.00446856
0.00445983
0.000650015
0.000651088
0.00065215
0.000653271
0.000654724
0.000656808
0.000659946
0.000664656
0.000671575
0.000681435
0.000694931
0.000712715
0.000735433
0.000763599
0.000797513
0.000837256
0.00088271
0.000933601
0.000989553
0.00105016
0.00111501
0.00118366
0.00125575
0.00133107
0.00140943
0.00149049
0.00157394
0.00165951
0.00174701
0.00183621
0.00192689
0.00201892
0.00211218
0.00220657
0.00230201
0.00239851
0.00249605
0.00259461
0.00269418
0.00279466
0.00289586
0.0029975
0.00309927
0.00320076
0.00330163
0.00340142
0.00349982
0.00359621
0.00369016
0.00378161
0.00387005
0.00395515
0.00403682
0.00411488
0.00418932
0.00426008
0.00432702
0.00439004
0.00444903
0.004504
0.00455506
0.00460241
0.00464633
0.00468704
0.00472467
0.00475918
0.00479057
0.0048188
0.00484393
0.00486619
0.00488591
0.00490335
0.00491883
0.00493229
0.00494407
0.00495427
0.0049628
0.0049697
0.00497512
0.00497921
0.0049821
0.00498391
0.00498472
0.00498458
0.00498354
0.0049816
0.00497878
0.00497511
0.00497061
0.00496533
0.00495931
0.00495262
0.00494529
0.00493736
0.00492888
0.0049199
0.00491041
0.00490047
0.00489012
0.00487937
0.00486824
0.00485678
0.00484498
0.00483288
0.00482047
0.00480777
0.00479476
0.00478145
0.00476781
0.00475388
0.00473962
0.00472506
0.00471022
0.00469509
0.00467973
0.00466417
0.00464847
0.0046327
0.00461689
0.00460113
0.00458544
0.0045699
0.00455453
0.00453934
0.00452435
0.00450955
0.00449499
0.00448051
0.00446717
0.00445839
0.000523093
0.000524684
0.000526859
0.000530362
0.000536045
0.000544674
0.000557012
0.000573701
0.000595502
0.000623214
0.00065682
0.000695887
0.000740194
0.000789403
0.000843044
0.000900627
0.000961702
0.00102588
0.00109283
0.00116238
0.00123422
0.00130807
0.00138393
0.00146177
0.00154153
0.00162303
0.00170612
0.00179066
0.00187655
0.00196363
0.00205168
0.00214073
0.00223074
0.00232165
0.00241341
0.00250609
0.00259969
0.00269418
0.00278962
0.00288593
0.00298287
0.00308022
0.00317763
0.00327475
0.00337126
0.00346673
0.00356079
0.00365297
0.00374291
0.00383042
0.0039151
0.00399664
0.00407493
0.00414982
0.00422129
0.00428927
0.00435364
0.00441429
0.00447112
0.00452411
0.00457336
0.00461907
0.00466149
0.00470081
0.00473716
0.00477051
0.00480087
0.00482818
0.0048525
0.00487404
0.00489309
0.00490989
0.00492481
0.00493781
0.00494905
0.0049588
0.00496691
0.00497342
0.00497848
0.00498223
0.0049848
0.00498629
0.0049868
0.00498639
0.00498507
0.00498288
0.00497983
0.00497594
0.00497125
0.0049658
0.00495962
0.00495278
0.00494531
0.00493727
0.00492867
0.00491958
0.00491
0.00489997
0.00488953
0.00487871
0.00486752
0.00485599
0.00484414
0.00483199
0.00481953
0.00480678
0.00479374
0.00478041
0.00476675
0.00475279
0.00473854
0.00472399
0.00470915
0.00469403
0.00467869
0.00466314
0.00464745
0.00463168
0.00461587
0.00460009
0.00458438
0.00456881
0.00455338
0.00453813
0.00452308
0.00450819
0.00449356
0.004479
0.0044656
0.00445676
0.000359859
0.000367324
0.000379328
0.000396406
0.000419193
0.000448069
0.000483037
0.00052366
0.000569496
0.000620052
0.000674529
0.000732138
0.000792261
0.00085447
0.000918489
0.000984181
0.00105148
0.00112033
0.00119068
0.00126273
0.00133611
0.00141052
0.00148637
0.00156374
0.00164261
0.00172286
0.0018044
0.00188712
0.00197106
0.0020559
0.0021414
0.0022278
0.00231508
0.00240317
0.00249206
0.00258185
0.00267249
0.00276393
0.00285634
0.00294961
0.0030435
0.00313778
0.00323211
0.00332615
0.00341963
0.00351213
0.00360328
0.00369265
0.00377988
0.00386479
0.00394699
0.00402618
0.00410223
0.00417501
0.00424448
0.00431059
0.00437321
0.00443223
0.00448755
0.00453917
0.00458717
0.00463171
0.00467304
0.00471135
0.00474675
0.00477924
0.00480882
0.00483545
0.00485917
0.00488017
0.00489868
0.00491507
0.00492951
0.00494211
0.00495298
0.00496238
0.00497015
0.00497635
0.00498112
0.00498458
0.00498689
0.00498812
0.00498837
0.00498771
0.00498616
0.00498374
0.00498048
0.00497641
0.00497154
0.00496593
0.00495961
0.00495264
0.00494505
0.00493689
0.0049282
0.004919
0.00490934
0.00489923
0.00488871
0.00487782
0.00486656
0.00485498
0.00484307
0.00483087
0.00481837
0.00480558
0.00479251
0.00477915
0.00476548
0.00475151
0.00473727
0.00472272
0.00470789
0.00469278
0.00467747
0.00466193
0.00464625
0.0046305
0.00461468
0.0045989
0.00458316
0.00456754
0.00455206
0.00453676
0.00452163
0.00450666
0.00449195
0.0044773
0.00446384
0.00445494
0.000159757
0.000195154
0.000236404
0.000284099
0.000337934
0.000396628
0.000458487
0.000521946
0.000586037
0.000650145
0.000714383
0.000779158
0.000844467
0.000910388
0.000977017
0.00104452
0.00111305
0.00118266
0.00125337
0.0013252
0.00139816
0.00147236
0.00154781
0.00162453
0.00170253
0.00178175
0.00186213
0.00194359
0.00202629
0.00210969
0.00219352
0.00227827
0.00236386
0.00245021
0.00253733
0.00262542
0.00271427
0.00280376
0.00289426
0.00298564
0.00307763
0.00317006
0.0032625
0.00335461
0.00344625
0.003537
0.00362648
0.00371425
0.00379996
0.00388346
0.00396433
0.0040423
0.0041172
0.00418888
0.00425733
0.00432248
0.0043842
0.00444238
0.00449693
0.00454784
0.00459519
0.00463912
0.00467986
0.00471761
0.00475246
0.00478445
0.0048136
0.00483983
0.00486322
0.00488391
0.00490209
0.00491831
0.00493247
0.00494473
0.00495543
0.00496461
0.00497215
0.00497814
0.00498271
0.00498599
0.00498811
0.00498915
0.00498921
0.00498835
0.00498661
0.00498402
0.00498059
0.00497636
0.00497136
0.00496561
0.00495918
0.00495209
0.00494441
0.00493616
0.00492738
0.0049181
0.00490836
0.00489818
0.0048876
0.00487665
0.00486533
0.0048537
0.00484174
0.0048295
0.00481696
0.00480414
0.00479104
0.00477766
0.00476398
0.00475001
0.00473578
0.00472124
0.00470643
0.00469134
0.00467604
0.00466054
0.00464488
0.00462913
0.00461332
0.00459752
0.00458176
0.0045661
0.00455058
0.00453521
0.00452001
0.00450495
0.00449015
0.00447542
0.00446187
0.00445292
6.63922e-05
0.000131693
0.000205164
0.000277791
0.000346614
0.000411516
0.000473806
0.000534687
0.000595059
0.000656295
0.000719048
0.000783368
0.000849002
0.000915771
0.000983635
0.00105255
0.00112241
0.00119316
0.00126485
0.00133725
0.0014108
0.00148595
0.00156221
0.00163949
0.00171786
0.00179727
0.00187773
0.00195916
0.00204146
0.00212449
0.00220832
0.00229286
0.00237805
0.00246388
0.00255041
0.00263798
0.00272616
0.00281483
0.00290454
0.0029951
0.00308624
0.00317792
0.00326953
0.00336071
0.00345153
0.00354156
0.00363045
0.00371767
0.00380286
0.00388595
0.00396652
0.00404428
0.00411899
0.0041905
0.00425885
0.0043239
0.00438554
0.00444367
0.00449818
0.00454907
0.00459641
0.00464032
0.00468102
0.00471869
0.00475345
0.00478535
0.00481443
0.0048406
0.00486398
0.00488465
0.00490287
0.00491907
0.00493313
0.00494529
0.00495599
0.00496509
0.00497255
0.00497846
0.00498296
0.00498616
0.00498818
0.00498912
0.00498907
0.00498809
0.00498623
0.00498351
0.00497997
0.00497563
0.00497052
0.00496469
0.00495816
0.004951
0.00494324
0.00493492
0.00492608
0.00491673
0.00490694
0.0048967
0.00488607
0.00487507
0.00486371
0.00485204
0.00484004
0.00482776
0.00481519
0.00480234
0.00478923
0.00477584
0.00476215
0.00474819
0.00473396
0.00471945
0.00470465
0.0046896
0.00467433
0.00465886
0.00464323
0.00462749
0.00461169
0.00459588
0.0045801
0.0045644
0.00454882
0.0045334
0.00451811
0.00450296
0.00448806
0.00447324
0.00445962
0.0044506
3.05171e-06
1.36221e-05
3.77771e-05
7.83244e-05
0.000135303
0.000205707
0.000284383
0.000366264
0.000447603
0.000526845
0.000604041
0.000679847
0.000754873
0.000829565
0.000904424
0.000979237
0.00105408
0.00112945
0.00120538
0.00128189
0.00135935
0.00143785
0.00151713
0.00159718
0.00167803
0.00175965
0.00184214
0.00192544
0.00200912
0.0020936
0.00217916
0.00226513
0.00235145
0.00243823
0.0025256
0.00261364
0.00270234
0.00279191
0.00288225
0.00297324
0.00306472
0.0031568
0.0032487
0.00334007
0.0034312
0.00352161
0.00361106
0.00369884
0.00378452
0.00386828
0.00394963
0.00402829
0.00410389
0.00417624
0.00424548
0.00431145
0.00437397
0.00443295
0.00448831
0.00454002
0.00458815
0.00463278
0.00467414
0.00471239
0.00474765
0.00477998
0.0048095
0.00483608
0.00485987
0.00488095
0.0048997
0.00491614
0.00493027
0.00494274
0.00495366
0.00496291
0.0049705
0.00497653
0.00498113
0.00498441
0.00498648
0.00498745
0.00498741
0.00498641
0.00498452
0.00498177
0.00497819
0.00497381
0.00496866
0.00496279
0.00495623
0.00494904
0.00494125
0.00493289
0.00492401
0.00491464
0.00490482
0.00489455
0.00488389
0.00487286
0.00486148
0.00484978
0.00483775
0.00482545
0.00481287
0.0048
0.00478688
0.00477348
0.00475981
0.00474586
0.00473165
0.00471717
0.00470241
0.0046874
0.00467217
0.00465674
0.00464114
0.00462543
0.00460965
0.00459384
0.00457804
0.00456231
0.00454667
0.00453118
0.00451581
0.00450056
0.00448557
0.00447064
0.00445693
0.00444784
2.12466e-07
4.16757e-07
1.55735e-06
5.39158e-06
1.52833e-05
3.57656e-05
7.08069e-05
0.000121957
0.000188047
0.000265833
0.000350737
0.000439159
0.000528683
0.000618021
0.000706729
0.000794533
0.000881529
0.000967895
0.00105369
0.0011392
0.0012249
0.00131071
0.00139653
0.00148244
0.00156871
0.0016554
0.00174266
0.00183043
0.00191845
0.00200688
0.00209581
0.00218496
0.0022743
0.00236387
0.00245389
0.00254409
0.00263508
0.00272719
0.0028197
0.00291257
0.00300578
0.00309921
0.00319259
0.00328592
0.00337879
0.00347085
0.0035621
0.00365162
0.00373903
0.00382467
0.003908
0.00398886
0.00406657
0.00414089
0.0042122
0.00428023
0.00434478
0.00440572
0.004463
0.00451657
0.00456647
0.00461279
0.00465571
0.00469539
0.00473196
0.00476539
0.00479602
0.00482371
0.00484849
0.00487071
0.0048904
0.00490743
0.0049222
0.0049354
0.00494689
0.00495662
0.00496465
0.00497108
0.00497605
0.00497965
0.00498199
0.00498319
0.00498334
0.0049825
0.00498073
0.00497809
0.00497459
0.00497029
0.00496521
0.0049594
0.0049529
0.00494575
0.00493799
0.00492967
0.00492082
0.00491147
0.00490166
0.00489141
0.00488076
0.00486974
0.00485837
0.00484667
0.00483465
0.00482235
0.00480977
0.00479691
0.00478379
0.00477041
0.00475677
0.00474285
0.00472867
0.00471423
0.00469953
0.00468458
0.0046694
0.00465403
0.00463848
0.00462281
0.00460706
0.00459126
0.00457546
0.0045597
0.00454402
0.00452845
0.00451301
0.00449766
0.00448257
0.00446753
0.00445374
0.00444456
3.28682e-07
3.02131e-07
2.55476e-07
2.65133e-07
5.05307e-07
1.44234e-06
4.35477e-06
1.18288e-05
2.77171e-05
5.61794e-05
0.000100071
0.00015993
0.000233836
0.000318319
0.000409529
0.000504735
0.000601771
0.000699297
0.000796913
0.000894258
0.000991167
0.00108775
0.00118404
0.00127998
0.00137556
0.00147089
0.00156626
0.00166158
0.00175672
0.00185168
0.00194646
0.00204124
0.00213594
0.00223057
0.00232546
0.00242043
0.00251584
0.00261183
0.00270806
0.00280451
0.00290115
0.00299749
0.00309404
0.00319092
0.00328703
0.00338216
0.00347612
0.0035686
0.00365959
0.00374862
0.00383531
0.00391967
0.00400079
0.00407844
0.00415314
0.00422454
0.00429241
0.0043566
0.00441706
0.00447371
0.00452659
0.00457575
0.00462134
0.00466351
0.0047024
0.00473792
0.00477055
0.00480041
0.00482701
0.00485086
0.00487198
0.00489028
0.00490651
0.00492098
0.00493355
0.00494424
0.00495315
0.00496039
0.0049661
0.00497037
0.00497331
0.00497505
0.00497566
0.00497522
0.00497382
0.00497149
0.00496827
0.00496422
0.00495937
0.00495377
0.00494746
0.00494048
0.00493287
0.00492469
0.00491596
0.00490672
0.00489701
0.00488685
0.00487628
0.00486533
0.00485402
0.00484237
0.0048304
0.00481815
0.00480562
0.00479279
0.00477972
0.00476639
0.00475279
0.00473894
0.00472481
0.00471045
0.00469582
0.00468094
0.00466585
0.00465055
0.00463507
0.00461947
0.00460376
0.00458799
0.00457221
0.00455644
0.00454072
0.00452509
0.00450958
0.00449415
0.00447896
0.00446381
0.00444995
0.00444069
3.31583e-07
3.23239e-07
3.14938e-07
3.04961e-07
2.88724e-07
2.62704e-07
2.61931e-07
4.00746e-07
9.62123e-07
2.74001e-06
7.5441e-06
1.85006e-05
3.96743e-05
7.48098e-05
0.000126008
0.000193063
0.000273586
0.000364208
0.000461795
0.000563535
0.000667289
0.00077255
0.000878521
0.000984515
0.00109037
0.00119599
0.00130148
0.0014065
0.00151104
0.00161543
0.00171924
0.0018225
0.00192522
0.00202752
0.00212978
0.00223172
0.00233359
0.00243553
0.00253761
0.00263972
0.00274174
0.00284343
0.00294514
0.00304674
0.00314756
0.00324736
0.00334557
0.00344271
0.00353889
0.00363283
0.00372431
0.00381311
0.00389895
0.00398194
0.00406168
0.00413793
0.00421055
0.00427943
0.00434447
0.00440561
0.00446284
0.00451619
0.00456577
0.00461172
0.00465416
0.00469331
0.00472911
0.00476185
0.0047912
0.00481736
0.00484083
0.00486153
0.00488005
0.0048965
0.00491083
0.00492312
0.00493352
0.00494213
0.0049491
0.00495452
0.00495853
0.00496121
0.00496268
0.00496301
0.0049623
0.0049606
0.00495795
0.00495441
0.00495003
0.00494486
0.00493894
0.00493231
0.00492503
0.00491714
0.00490868
0.00489968
0.0048902
0.00488023
0.00486985
0.00485906
0.0048479
0.00483639
0.00482455
0.00481241
0.00479998
0.00478727
0.00477429
0.00476105
0.00474756
0.00473379
0.00471978
0.00470551
0.004691
0.00467623
0.00466125
0.00464606
0.00463068
0.00461518
0.00459954
0.00458383
0.00456808
0.00455232
0.0045366
0.00452094
0.00450537
0.00448987
0.0044746
0.00445935
0.00444544
0.00443611
3.30924e-07
3.22692e-07
3.15367e-07
3.08853e-07
3.02985e-07
2.97415e-07
2.91279e-07
2.82527e-07
2.675e-07
2.54242e-07
3.0308e-07
5.68584e-07
1.47248e-06
4.10102e-06
1.06647e-05
2.46118e-05
5.00489e-05
9.04674e-05
0.000147479
0.000220443
0.000306842
0.000403511
0.000507129
0.00061504
0.000725693
0.000838326
0.000951855
0.00106561
0.0011795
0.0012933
0.00140674
0.00151972
0.00163202
0.00174387
0.00185547
0.00196664
0.00207734
0.00218785
0.00229819
0.00240817
0.00251764
0.00262665
0.00273543
0.00284371
0.00295117
0.00305751
0.00316238
0.00326613
0.00336858
0.00346887
0.00356675
0.00366155
0.0037539
0.00384394
0.00393033
0.00401301
0.00409197
0.00416711
0.00423832
0.00430552
0.00436866
0.00442773
0.00448282
0.00453402
0.00458146
0.00462566
0.00466593
0.00470243
0.00473571
0.00476572
0.00479281
0.00481704
0.00483879
0.00485813
0.0048751
0.00488986
0.00490253
0.00491326
0.00492218
0.00492942
0.00493508
0.00493929
0.00494215
0.00494376
0.0049442
0.00494355
0.00494187
0.00493921
0.00493564
0.00493122
0.00492598
0.00491998
0.00491328
0.00490592
0.00489794
0.00488938
0.0048803
0.00487071
0.00486066
0.00485019
0.00483931
0.00482806
0.00481646
0.00480454
0.00479231
0.00477979
0.00476699
0.00475392
0.00474059
0.00472699
0.00471314
0.00469904
0.00468468
0.00467008
0.00465526
0.00464023
0.00462499
0.00460962
0.0045941
0.00457849
0.00456281
0.00454711
0.00453141
0.00451575
0.00450016
0.00448461
0.00446929
0.00445396
0.00444003
0.00443062
3.30637e-07
3.22296e-07
3.14994e-07
3.08552e-07
3.02837e-07
2.97715e-07
2.93141e-07
2.89004e-07
2.85109e-07
2.81136e-07
2.76258e-07
2.68471e-07
2.56307e-07
2.58005e-07
3.50119e-07
7.27893e-07
1.92841e-06
5.24999e-06
1.31611e-05
2.93211e-05
5.79138e-05
0.000102254
0.000163712
0.000241475
0.00033295
0.000435003
0.000544311
0.000658419
0.000775504
0.00089442
0.00101474
0.00113566
0.0012566
0.00137774
0.00149866
0.00161917
0.00173955
0.00185985
0.00197969
0.00209898
0.00221801
0.0023366
0.00245463
0.00257184
0.00268807
0.00280284
0.00291623
0.0030284
0.003139
0.00324747
0.00335357
0.00345687
0.00355772
0.00365588
0.00375042
0.00384123
0.00392828
0.00401144
0.00409057
0.00416555
0.00423632
0.00430284
0.00436513
0.00442328
0.00447735
0.00452772
0.00457394
0.00461623
0.00465505
0.00469042
0.00472255
0.00475155
0.00477769
0.00480109
0.00482183
0.00484011
0.00485608
0.00486988
0.00488166
0.00489155
0.00489967
0.00490616
0.00491112
0.00491466
0.00491688
0.00491787
0.00491769
0.00491643
0.00491414
0.0049109
0.00490675
0.00490176
0.00489598
0.00488948
0.00488229
0.00487446
0.00486604
0.00485706
0.00484758
0.00483763
0.00482723
0.00481642
0.00480523
0.00479369
0.0047818
0.00476961
0.00475711
0.00474433
0.00473127
0.00471793
0.00470434
0.00469047
0.00467636
0.004662
0.00464741
0.00463259
0.00461756
0.00460239
0.00458705
0.0045716
0.00455605
0.00454045
0.00452482
0.00450921
0.00449364
0.00447809
0.00446275
0.0044474
0.00443347
0.004424
3.30521e-07
3.22164e-07
3.14892e-07
3.08475e-07
3.02754e-07
2.97659e-07
2.93087e-07
2.88933e-07
2.8514e-07
2.81665e-07
2.78446e-07
2.75503e-07
2.72626e-07
2.69605e-07
2.65668e-07
2.59088e-07
2.50518e-07
2.6378e-07
3.84354e-07
8.35803e-07
2.22795e-06
5.97599e-06
1.4677e-05
3.21233e-05
6.25329e-05
0.000109271
0.000173703
0.000255045
0.000350543
0.000456878
0.000571213
0.000690668
0.000813608
0.000938865
0.00106549
0.00119334
0.001322
0.00145088
0.00157967
0.00170848
0.00183732
0.00196567
0.00209364
0.00222111
0.00234749
0.00247269
0.00259667
0.00271928
0.00284014
0.00295875
0.00307495
0.00318863
0.00329979
0.00340791
0.00351244
0.00361327
0.00371032
0.0038034
0.00389232
0.00397697
0.00405726
0.00413309
0.00420446
0.00427141
0.00433396
0.00439232
0.00444635
0.00449628
0.00454238
0.00458471
0.00462344
0.00465868
0.00469065
0.00471952
0.00474541
0.00476853
0.00478904
0.0048071
0.00482286
0.00483647
0.00484807
0.0048578
0.00486576
0.0048721
0.0048769
0.0048803
0.00488234
0.00488314
0.00488276
0.00488129
0.00487879
0.00487532
0.00487095
0.00486575
0.00485977
0.00485306
0.00484567
0.00483766
0.00482906
0.00481993
0.00481028
0.00480017
0.00478963
0.00477869
0.00476736
0.00475568
0.00474367
0.00473133
0.00471871
0.00470578
0.00469257
0.00467907
0.00466531
0.00465129
0.00463703
0.00462253
0.00460781
0.00459292
0.00457784
0.00456262
0.00454728
0.00453186
0.00451639
0.00450089
0.00448541
0.00446993
0.00445463
0.00443929
0.00442543
0.00441592
3.30461e-07
3.22098e-07
3.14815e-07
3.084e-07
3.02691e-07
2.97589e-07
2.9298e-07
2.88799e-07
2.84989e-07
2.81513e-07
2.78355e-07
2.75424e-07
2.72677e-07
2.7016e-07
2.67753e-07
2.65508e-07
2.63348e-07
2.60906e-07
2.57635e-07
2.52444e-07
2.46835e-07
2.65737e-07
3.95929e-07
8.68447e-07
2.30539e-06
6.13546e-06
1.4963e-05
3.25725e-05
6.32622e-05
0.000110587
0.00017623
0.000259306
0.000357571
0.000467609
0.000586152