/*--------------------------------*- C++ -*----------------------------------*\
| =========                 |                                                 |
| \\      /  F ield         | OpenFOAM: The Open Source CFD Toolbox           |
|  \\    /   O peration     | Version:  1.7.x                                 |
|   \\  /    A nd           | Web:      www.OpenFOAM.com                      |
|    \\/     M anipulation  |                                                 |
\*---------------------------------------------------------------------------*/
FoamFile
{
    version     2.0;
    format      ascii;
    class       volScalarField;
    location    "3800";
    object      epsilon;
}
// * * * * * * * * * * * * * * * * * * * * * * * * * * * * * * * * * * * * * //

dimensions      [0 2 -3 0 0 0 0];

internalField   nonuniform List<scalar> 
5460
(
858.66
860.385
861.89
863.234
864.459
865.607
866.714
867.812
868.925
870.077
871.292
872.591
873.996
875.535
877.242
879.167
881.373
883.95
887.022
890.759
895.387
901.212
908.648
918.25
930.749
947.107
968.596
996.887
1034.16
1083.23
1147.7
1232.08
1341.85
1483.42
1663.79
1889.91
2167.57
2499.97
2886.15
3319.82
3789.02
4276.83
4763.14
5226.97
5648.83
6012.65
6306.91
6525.11
6665.49
6730.19
6724.38
6655.35
6531.7
6362.63
6156.28
5920.7
5664.12
5393.37
5114.24
4831.65
4549.75
4271.95
4000.96
3738.79
3486.87
3246.16
3017.25
2800.49
2596.04
2403.9
2223.93
2055.85
1899.24
1753.7
1618.68
1493.37
1377.37
1270.11
1171.01
1079.51
995.083
917.237
845.495
779.407
718.547
662.517
610.942
563.476
519.794
479.597
442.607
408.568
377.242
348.412
321.875
297.446
274.954
254.241
235.163
217.587
201.391
186.463
172.7
160.007
148.299
137.495
127.523
118.315
109.812
101.956
94.6953
87.9829
81.7751
76.0315
70.7153
65.7927
61.2323
57.0057
53.0867
49.4512
46.0773
42.9449
40.0357
37.3327
34.8209
32.4856
30.3152
28.295
26.4244
24.7469
922.436
923.028
923.757
924.586
925.493
926.47
927.519
928.646
929.859
931.171
932.601
934.171
935.907
937.85
940.055
942.601
945.593
949.18
953.562
959.01
965.881
974.646
985.94
1000.59
1019.67
1044.57
1077.07
1119.46
1174.63
1246.19
1338.54
1456.82
1606.82
1794.6
2025.87
2305.05
2634.23
3012.09
3433.06
3887.2
4360.51
4836.18
5296.02
5722.29
6099.31
6414.66
6659.93
6830.95
6927.55
6952.73
6912
6812.63
6663.05
6471.72
6246.65
5995.6
5726.09
5444.61
5156.58
4866.65
4578.69
4295.89
4020.78
3755.22
3500.51
3257.5
3026.69
2808.36
2602.62
2409.41
2228.56
2059.74
1902.51
1756.46
1620.97
1495.33
1379.04
1271.53
1172.21
1080.53
995.961
917.989
846.14
779.961
719.025
662.929
611.299
563.784
520.062
479.83
442.81
408.745
377.398
348.548
321.995
297.551
275.047
254.323
235.235
217.651
201.448
186.514
172.745
160.047
148.334
137.527
127.551
118.341
109.835
101.976
94.7136
87.9994
81.7898
76.0448
70.7273
65.8034
61.2421
57.0145
53.0947
49.4585
46.0839
42.9509
40.0412
37.3378
34.8256
32.49
30.3192
28.2988
26.4279
24.7502
1057.67
1058.61
1059.68
1060.87
1062.16
1063.57
1065.1
1066.77
1068.59
1070.58
1072.78
1075.23
1078.01
1081.2
1084.94
1089.42
1094.88
1101.66
1110.19
1121.05
1134.99
1152.95
1176.17
1206.26
1245.19
1295.43
1360
1442.57
1547.47
1679.62
1844.28
2046.69
2291.42
2581.59
2918.02
3298.48
3717.34
4165.56
4631.27
5100.62
5558.83
5991.3
6384.5
6726.82
7009.14
7225.19
7371.69
7448.35
7457.66
7404.04
7293.61
7133.48
6931.8
6695.84
6432.9
6150.22
5854.34
5550.89
5244.62
4939.56
4639.1
4345.97
4062.33
3789.72
3529.19
3281.37
3046.6
2824.99
2616.54
2421.08
2238.35
2067.97
1909.44
1762.32
1625.91
1499.52
1382.59
1274.55
1174.79
1082.73
997.84
919.6
847.523
781.151
720.05
663.814
612.065
564.449
520.639
480.332
443.249
409.128
377.733
348.843
322.254
297.779
275.247
254.5
235.392
217.79
201.571
186.623
172.842
160.134
148.412
137.596
127.613
118.396
109.884
102.02
94.7534
88.0351
81.8219
76.0737
70.7533
65.8269
61.2633
57.0338
53.1121
49.4743
46.0984
42.9641
40.0533
37.3489
34.8358
32.4994
30.3279
28.3068
26.4355
24.7573
1276.83
1278.31
1280.1
1282.15
1284.41
1286.88
1289.56
1292.49
1295.69
1299.23
1303.22
1307.77
1313.09
1319.45
1327.19
1336.81
1348.92
1364.33
1384.07
1409.45
1442.08
1484
1537.72
1606.3
1693.4
1803.2
1940.38
2109.96
2316.95
2565.83
2859.83
3200.17
3585.33
4010.66
4468.33
4947.74
5436.32
5920.45
6386.46
6821.53
7214.24
7555.14
7836.92
8054.55
8205.33
8288.71
8306.09
8260.84
8157.84
8002.76
7802.35
7563.46
7293.67
6999.29
6686.46
6361.71
6030.52
5697.51
5366.56
5040.96
4723.41
4416.11
4120.71
3838.35
3569.75
3315.23
3074.9
2848.69
2636.41
2437.77
2252.4
2079.81
1919.43
1770.78
1633.07
1505.59
1387.75
1278.94
1178.54
1085.94
1000.59
921.955
849.548
782.895
721.556
665.116
613.193
565.428
521.491
481.075
443.897
409.696
378.23
349.279
322.637
298.117
275.546
254.764
235.626
217.997
201.755
186.786
172.987
160.263
148.527
137.699
127.705
118.479
109.958
102.087
94.813
88.0887
81.8702
76.1171
70.7925
65.8623
61.2953
57.0627
53.1384
49.4982
46.1201
42.984
40.0715
37.3656
34.8511
32.5135
30.341
28.3189
26.4468
24.7679
1599.8
1602.85
1606.38
1610.26
1614.42
1618.92
1623.81
1629.21
1635.25
1642.14
1650.22
1659.88
1671.7
1686.4
1704.96
1728.61
1758.87
1797.66
1847.3
1910.62
1990.75
2091.83
2218.5
2375.22
2567.15
2799.34
3076
3399.95
3771.98
4190.23
4649.72
5142.41
5657.62
6182.78
6704.48
7209.43
7685.25
8120.95
8507.35
8837.12
9104.75
9306.61
9440.86
9507.35
9507.67
9444.88
9323.15
9148.26
8926.45
8663.95
8367.79
8044.86
7701.5
7343.51
6976.18
6605.04
6234.52
5868.32
5509.44
5160.41
4823.26
4499.58
4190.51
3896.75
3618.64
3356.21
3109.29
2877.58
2660.72
2458.26
2269.69
2094.42
1931.79
1781.29
1641.99
1513.17
1394.21
1284.46
1183.25
1089.97
1004.05
924.935
852.115
785.111
723.471
666.775
614.633
566.68
522.582
482.027
444.729
410.425
378.871
349.842
323.133
298.554
275.932
255.106
235.929
218.266
201.994
186.999
173.177
160.433
148.678
137.834
127.826
118.587
110.055
102.174
94.8914
88.1592
81.9336
76.1743
70.844
65.9088
61.3373
57.1008
53.173
49.5297
46.1488
43.0102
40.0955
37.3876
34.8714
32.5322
30.3583
28.335
26.4618
24.7821
2062.36
2067.71
2074.07
2081
2088.55
2096.91
2106.32
2117.15
2129.87
2145.22
2164.17
2187.93
2218.05
2256.5
2305.68
2368.5
2448.38
2549.31
2675.79
2832.77
3025.19
3258.17
3537.09
3865.21
4243.87
4673.03
5149.42
5666.36
6214.19
6780.95
7353.15
7916.95
8459.08
8967.66
9432.67
9846.22
10202.4
10497
10727.6
10892.6
10991.8
11025.6
10995.4
10903.5
10753.4
10549.2
10296.1
10000.4
9668.63
9307.11
8922.22
8520.53
8107.86
7689.4
7269.95
6853.93
6444.92
6045.88
5659.09
5286.42
4929.31
4588.81
4265.58
3959.93
3671.84
3401.02
3147.08
2909.49
2687.7
2481.09
2289.03
2110.83
1945.74
1793.17
1652.13
1521.81
1401.59
1290.78
1188.67
1094.64
1008.06
928.394
855.103
787.696
725.711
668.721
616.325
568.155
523.869
483.153
445.716
411.291
379.632
350.513
323.725
299.077
276.395
255.516
236.293
218.59
202.282
187.256
173.406
160.637
148.861
137.998
127.973
118.719
110.174
102.28
94.987
88.2452
82.0111
76.2442
70.9071
65.9659
61.389
57.1476
53.2155
49.5684
46.1841
43.0425
40.125
37.4147
34.8964
32.5553
30.3796
28.3547
26.4803
24.7995
2715.83
2726.78
2739.44
2753.34
2768.92
2786.93
2808.3
2834.27
2866.46
2907.06
2958.82
3025
3109.44
3216.63
3351.64
3519.99
3727.41
3979.56
4281.52
4637.21
5048.73
5514.89
6032.16
6594.63
7192.37
7813.07
8442.66
9066.25
9669.4
10239.1
10764.3
11236.5
11649.5
11999.5
12284.6
12504.5
12659.9
12752.4
12784
12756.9
12673.1
12535.1
12345.1
12106
11820.8
11493.7
11129.4
10732.9
10309.8
9866.61
9408.69
8941.66
8471.3
8002.16
7538.41
7083.77
6641.24
6213.21
5801.49
5407.44
5032.06
4675.99
4339.53
4022.64
3725.02
3446.13
3185.37
2942.02
2715.37
2504.66
2309.11
2127.95
1960.39
1805.68
1662.84
1531
1409.49
1297.57
1194.52
1099.68
1012.42
932.163
858.37
790.532
728.178
670.869
618.2
569.794
525.304
484.411
446.822
412.264
380.49
351.27
324.394
299.67
276.921
255.983
236.708
218.959
202.612
187.55
173.669
160.873
149.072
138.187
128.142
118.871
110.311
102.404
95.0981
88.3454
82.1015
76.3257
70.9809
66.0326
61.4494
57.2025
53.2654
49.6138
46.2256
43.0804
40.1598
37.4467
34.9259
32.5825
30.4048
28.3781
26.5023
24.8201
3672.72
3694.64
3721.59
3753.21
3791.22
3838.04
3896.74
3971.22
4066.09
4186.93
4340.25
4532.91
4771.9
5063.93
5414.83
5828.77
6307.44
6849.28
7448.91
8097.11
8781.24
9485.49
10191.5
10883.1
11546.1
12166.2
12732.8
13238
13676.5
14045.5
14343.7
14572.1
14732.8
14828.8
14864
14842.3
14767.8
14644
14474.4
14261.9
14009.1
13718.1
13390.9
13029.1
12635
12211.4
11762.2
11290.5
10800.3
10297.4
9786.61
9272.65
8760.49
8254.23
7757.63
7273.95
6805.84
6355.36
5923.99
5512.83
5122.61
4753.69
4406.14
4079.71
3773.89
3487.99
3221.22
2972.74
2741.71
2527.26
2328.52
2144.63
1974.8
1818.07
1673.49
1540.18
1417.42
1304.43
1200.46
1104.83
1016.89
936.055
861.759
793.488
730.759
673.127
620.177
571.529
526.829
485.754
448.005
413.309
381.413
352.088
325.12
300.315
277.494
256.493
237.163
219.366
202.974
187.875
173.96
161.133
149.306
138.397
128.332
119.041
110.464
102.542
95.2228
88.458
82.2032
76.4177
71.0641
66.108
61.5178
57.2646
53.3219
49.6654
46.2727
43.1236
40.1995
37.4833
34.9595
32.6136
30.4337
28.4049
26.5274
24.8438
5156.88
5220.91
5299.16
5393.7
5511.31
5659.73
5847.71
6084.78
6380.52
6744.24
7183.5
7702.79
8302.79
8978.89
9720.76
10512.8
11335
12165
12979.8
13758.2
14482.2
15137.7
15714.8
16208.2
16616.7
16941.7
17187.1
17357.5
17457.9
17493.4
17468.6
17388.6
17258.4
17083
16867.2
16615.3
16331.2
16017.8
15677.6
15312.9
14925
14515.3
14084.4
13632.8
13161.3
12671.5
12165.4
11645.4
11113.9
10575.1
10032.9
9491.47
8954.85
8426.71
7910.48
7409.17
6925.18
6460.42
6016.26
5593.67
5193.28
4815.36
4459.87
4126.44
3814.49
3523.23
3251.8
2999.27
2764.73
2547.25
2345.87
2159.69
1987.95
1829.51
1683.4
1548.8
1424.93
1310.97
1206.17
1109.81
1021.25
939.869
865.101
796.419
733.334
675.391
622.172
573.287
528.382
487.127
449.221
414.387
382.371
352.939
325.878
300.99
278.097
257.032
237.645
219.797
203.361
188.222
174.271
161.414
149.558
138.624
128.536
119.226
110.631
102.693
95.3589
88.581
82.3145
76.5185
71.1555
66.1909
61.5932
57.3332
53.3845
49.7225
46.325
43.1716
40.2436
37.5239
34.9971
32.6483
30.466
28.4349
26.5556
24.8703
7864.95
8088.23
8361.09
8692.18
9100.01
9599.66
10201.9
10910.2
11722.6
12631.5
13613.4
14634.5
15661.8
16660.1
17596.1
18442.5
19180.1
19798.7
20295.7
20675.5
20945.1
21113.1
21190.6
21188.3
21116.2
20984.1
20800.5
20572.4
20306.1
20006.5
19677
19321.1
18942.3
18544.1
18129.4
17700.9
17260.6
16809.5
16348.6
15878.9
15400.4
14913.4
14417.4
13911.4
13395.5
12869.7
12335
11792.6
11243.8
10691.4
10138.4
9588.17
9044.04
8509.2
7986.83
7479.71
6990.17
6520.03
6070.69
5643.15
5238.06
4855.7
4496.07
4158.81
3843.35
3548.88
3274.56
3019.44
2782.6
2563.06
2359.83
2172.03
1998.89
1839.17
1691.88
1556.27
1431.51
1316.78
1211.29
1114.33
1025.24
943.394
868.218
799.178
735.776
677.556
624.091
574.992
529.897
488.475
450.422
415.458
383.327
353.794
326.642
301.675
278.71
257.582
238.139
220.241
203.761
188.582
174.596
161.706
149.823
138.863
128.752
119.421
110.807
102.853
95.5037
88.7123
82.4336
76.6266
71.2536
66.2801
61.6744
57.4073
53.4521
49.7844
46.3817
43.2237
40.2916
37.5682
35.0381
32.6864
30.5013
28.4678
26.5866
24.8995
14447.7
15443.1
16455.4
17530.8
18704.8
19966.3
21271.2
22557.2
23765.7
24845.3
25751.6
26459.9
26965.5
27277.4
27414.1
27400
27261.5
27023.6
26708
26335.8
25916.9
25458.5
24974.2
24471.8
23956.6
23432.7
22903.2
22370.3
21836.2
21300.9
20763.5
20225.5
19687.7
19151
18616
18083.8
17554.4
17027.1
16501.7
15978
15455.4
14933
14409.8
13883.8
13354.2
12820.5
12282.9
11741.5
11196.7
10650.5
10104.8
9562.45
9026.15
8498.59
7982.68
7481.06
6995.98
6529.31
6082.53
5656.73
5252.69
4870.83
4511.23
4173.67
3857.66
3562.48
3287.35
3031.38
2793.67
2573.27
2369.2
2180.66
2006.74
1846.27
1698.27
1562.03
1436.7
1321.45
1215.49
1118.1
1028.62
946.423
870.933
801.61
737.956
679.509
625.842
576.562
531.305
489.739
451.557
416.479
384.245
354.62
327.386
302.345
279.314
258.128
238.632
220.686
204.163
188.945
174.925
162.005
150.093
139.108
128.974
119.623
110.99
103.019
95.6547
88.8495
82.5583
76.7401
71.3569
66.3743
61.7603
57.4857
53.5239
49.8502
46.4422
43.2794
40.343
37.6158
35.0822
32.7273
30.5395
28.5034
26.6202
24.9312
41377
40623.1
40269.1
40138.1
40140.2
40123.9
39964.5
39605.2
39052.3
38316.6
37441
36479.4
35467.6
34436
33406.3
32394.9
31412.9
30464.6
29550.7
28669.9
27820.1
27001
26211.8
25450.6
24715.9
24005.4
23317.2
22649
22001.2
21368.4
20747.2
20139.6
19544.4
18960.7
18387.6
17825.5
17273.1
16728.2
16191
15660.8
15136.2
14616.5
14099.9
13584
13067.7
12550.3
12031.5
11510.8
10988.1
10464.4
9941.37
9421.02
8905.64
8397.41
7899.01
7412.97
6941.5
6486.53
6049.62
5632.04
5234.73
4858.29
4502.99
4168.8
3855.39
3562.15
3288.47
3033.56
2796.61
2576.72
2372.96
2184.65
2010.73
1850.12
1701.99
1565.59
1440.07
1324.6
1218.43
1120.83
1031.14
948.749
873.068
803.566
739.745
681.141
627.33
577.917
532.538
490.86
452.577
417.405
385.087
355.384
328.081
302.976
279.889
258.649
239.106
221.118
204.556
189.302
175.25
162.3
150.362
139.353
129.198
119.827
111.176
103.188
95.8089
88.9901
82.6865
76.857
71.4637
66.4718
61.8495
57.5674
53.5988
49.9191
46.5057
43.338
40.3972
37.666
35.1289
32.7708
30.5801
28.5413
26.6561
24.965
10678.8
18450.2
26097
32046.4
36041.3
38306.5
39259.2
39262.1
38600.9
37610.8
36489.1
35332.7
34185.7
33071.8
32001.8
30981.7
30010
29080.3
28188.4
27327.1
26499.4
25709.6
24950.8
24221.4
23519.6
22842.5
22187.5
21552.4
20934.9
20333
19746.1
19173
18612.3
18062.6
17523.4
16995.7
16476.8
15964.9
15461.5
14965.6
14475.8
13991.5
13510.6
13030.7
12551.2
12071.1
11590.3
11107.8
10623
10136.6
9649.77
9164.22
8681.71
8203.98
7733.46
7272.59
6823.57
6388.34
5968.61
5565.79
5181.02
4815.14
4468.66
4141.74
3834.3
3545.92
3276.19
3024.48
2790.11
2572.27
2370.19
2183.16
2010.12
1850.16
1702.55
1566.52
1441.25
1325.96
1219.88
1122.33
1032.65
950.239
874.517
804.96
741.072
682.398
628.512
579.023
533.57
491.819
453.466
418.227
385.846
356.085
328.726
303.57
280.434
259.151
239.566
221.54
204.943
189.657
175.576
162.599
150.635
139.604
129.427
120.037
111.368
103.364
95.97
89.1375
82.8215
76.9806
71.5769
66.5756
61.9447
57.6549
53.6793
49.9932
46.5742
43.4014
40.456
37.7207
35.1798
32.8183
30.6246
28.5831
26.6956
25.0023
197.926
717.463
1813
3580.63
5999.84
8910.27
12014.5
15025.9
17688.8
19805.2
21371
22461.4
23169.8
23582.6
23773.5
23775.1
23623.7
23371.2
23048.7
22677.5
22275.5
21853.5
21417.4
20973.7
20525.1
20072.7
19618.6
19164
18707.5
18253
17803.9
17356.8
16911.8
16469
16028.6
15591.4
15157.4
14727.4
14301.3
13878.4
13457.9
13040.3
12623
12204.1
11784.4
11362.8
10939.3
10512.7
10081.8
9647.77
9211.33
8773.98
8337
7901.67
7470.25
7045.08
6628.33
6221.96
5827.75
5447.3
5081.96
4732.78
4400.55
4085.72
3788.47
3508.61
3246
3000.23
2770.81
2557.06
2358.43
2174.07
2003.09
1844.85
1698.64
1563.73
1439.34
1324.74
1219.2
1122.06
1032.7
950.522
874.972
805.535
741.729
683.105
629.245
579.764
534.306
492.54
454.164
418.898
386.486
356.691
329.299
304.109
280.939
259.622
240.006
221.949
205.323
190.01
175.903
162.901
150.915
139.862
129.666
120.257
111.571
103.551
96.1421
89.2959
82.9672
77.1146
71.7002
66.6891
62.0492
57.7513
53.7683
50.0756
46.6505
43.4722
40.5219
37.7821
35.2373
32.8721
30.6751
28.6304
26.7406
25.0448
2.56942
9.04707
32.9788
103.879
277.112
632.536
1251.94
2189.04
3445.57
4951.46
6586.02
8226.09
9772.25
11161.3
12365.5
13385.8
14226.6
14890.6
15394
15759.8
16012.2
16167.9
16238.3
16232
16168.3
16058.9
15913.4
15738
15536.5
15313.7
15073.3
14817
14547.1
14265.5
13973.9
13673.1
13366.5
13056.8
12742.6
12424.1
12101.7
11775.5
11445
11110.4
10771.2
10426.7
10077.6
9722.04
9359.48
8991.5
8618.49
8241.79
7862.07
7480.24
7098.7
6719.58
6344.91
5976.66
5616.66
5266.63
4928.12
4602.41
4290.56
3993.32
3711.15
3444.13
3192.48
2956.03
2734.46
2527.39
2334.29
2154.41
1987.13
1832.01
1688.38
1555.58
1432.93
1319.74
1215.34
1119.14
1030.52
948.945
873.874
804.818
741.31
682.919
629.238
579.893
534.536
492.844
454.519
419.288
386.896
357.112
329.721
304.526
281.347
260.018
240.386
222.313
205.669
190.338
176.212
163.192
151.188
140.117
129.904
120.479
111.778
103.743
96.3209
89.4617
83.1209
77.257
71.832
66.8111
62.1622
57.856
53.8654
50.1658
46.7344
43.5504
40.595
37.8505
35.3013
32.9322
30.7317
28.6837
26.7914
25.0929
0.79256
0.688577
0.827288
1.58929
4.16618
12.3036
35.7449
94.6746
222.196
460.309
848.211
1409.27
2140.23
3009.79
3966.82
4960.5
5943.51
6876.52
7735.25
8505.66
9182.88
9768
10267.7
10690
11033.6
11303.9
11509.6
11657.6
11753.9
11798.9
11800
11765.8
11701.2
11609.9
11495.6
11360.6
11207.8
11040
10858.3
10664.4
10459.2
10242.5
10016.2
9781.62
9537.36
9283.47
9020.13
8747.06
8464.89
8174.03
7874.84
7568.74
7255.71
6936.71
6614.39
6290.49
5966.83
5645.28
5327.74
5015.98
4711.7
4416.38
4131.3
3857.5
3595.75
3346.4
3110.05
2886.9
2676.57
2479.01
2293.91
2120.78
1959.3
1809.03
1669.48
1540.09
1420.27
1309.43
1206.99
1112.4
1025.13
944.649
870.484
802.169
739.267
681.367
628.084
579.061
533.961
492.475
454.313
419.209
386.917
357.208
329.875
304.722
281.573
260.264
240.644
222.577
205.934
190.601
176.47
163.442
151.43
140.349
130.126
120.689
111.977
103.931
96.4976
89.6276
83.2763
77.4024
71.9678
66.9379
62.2806
57.9664
53.9686
50.2622
46.8246
43.6349
40.6742
37.9249
35.3714
32.9982
30.7941
28.7427
26.8477
25.1465
0.769983
0.599607
0.475306
0.389584
0.347185
0.385502
0.626293
1.43598
3.94649
11.3046
30.7732
75.9151
167.02
328.008
580.372
937.024
1396.8
1944.23
2554.69
3198.26
3846.77
4481.43
5087.79
5656.52
6180.05
6653.24
7075.03
7444.85
7763.96
8038.96
8268.17
8453.03
8596.47
8701.64
8772.78
8808.6
8814.3
8794.36
8752.43
8690.71
8610.59
8512.69
8398.86
8270.45
8127.63
7971.07
7800.27
7616.68
7421.55
7214.16
6995.09
6765.11
6524.92
6276.14
6020.2
5758.62
5493.06
5225.33
4957.29
4690.74
4427.44
4168.99
3916.87
3672.34
3436.42
3209.97
2993.55
2787.64
2592.2
2407.34
2233.24
2069.63
1916.31
1772.98
1639.31
1514.9
1399.29
1291.99
1192.54
1100.45
1015.28
936.558
863.861
796.77
734.886
677.832
625.25
576.804
532.181
491.087
453.246
418.405
386.326
356.791
329.596
304.555
281.495
260.255
240.69
222.664
206.053
190.743
176.627
163.611
151.604
140.527
130.303
120.865
112.149
104.098
96.6581
89.7816
83.4233
77.5422
72.1004
67.0633
62.399
58.0782
54.074
50.3616
46.9183
43.7234
40.7578
38.0039
35.4461
33.069
30.8613
28.8065
26.909
25.2052
0.767186
0.59759
0.472312
0.378596
0.307682
0.253791
0.21392
0.189052
0.189564
0.251086
0.478704
1.18936
3.32042
9.29188
24.2945
57.4257
121.665
231.898
401.39
637.823
940.628
1301.95
1707.72
2141.55
2588.37
3035.66
3472.25
3889.76
4283.16
4649.93
4986.85
5291.85
5563.56
5802.24
6009.18
6187.41
6335.67
6455.13
6547.75
6614.95
6656.25
6673.19
6668.88
6645.12
6603.2
6543.78
6466.96
6373.96
6265.76
6142.63
6005.2
5853.41
5688.97
5513.6
5327.57
5132.29
4929.27
4720.16
4506.73
4290.7
4073.8
3857.69
3643.92
3433.92
3228.89
3030.14
2838.12
2653.42
2476.73
2308.31
2148.52
1997.36
1854.81
1720.76
1595.06
1477.46
1367.67
1265.35
1170.12
1081.63
999.508
923.373
852.862
787.615
727.285
671.538
620.055
572.531
528.679
488.229
450.927
416.534
384.828
355.601
328.662
303.832
280.945
259.848
240.399
222.467
205.932
190.682
176.615
163.637
151.66
140.605
130.398
120.972
112.264
104.218
96.781
89.9051
83.5459
77.6627
72.218
67.1773
62.509
58.1839
54.1753
50.4585
47.011
43.8119
40.8423
38.0846
35.5231
33.1425
30.9316
28.8738
26.974
25.2679
0.766055
0.597099
0.472808
0.379713
0.308908
0.254261
0.211548
0.177792
0.15094
0.129783
0.114242
0.106709
0.116525
0.172111
0.356362
0.918624
2.57184
7.08182
18.0838
41.7368
86.6163
162.402
277.698
437.737
642.955
889.247
1168.34
1470.21
1784.86
2103.99
2421.25
2730.63
3027.1
3307.82
3569.96
3812.39
4034.21
4234.71
4412.97
4568.88
4704.39
4819.38
4912.94
4985.41
5037.67
5067.97
5078.07
5069.67
5043.79
5001.06
4942.01
4866.85
4776.81
4673.07
4556.31
4427.67
4288.35
4139.77
3983.46
3821.01
3653.99
3484.02
3312.63
3141.32
2971.38
2804.17
2640.51
2481.19
2327.05
2178.63
2036.42
1900.69
1771.64
1649.36
1533.89
1425.15
1323.01
1227.28
1137.73
1054.12
976.17
903.612
836.156
773.516
715.408
661.55
611.671
565.508
522.81
483.335
446.857
413.159
382.038
353.305
326.78
302.297
279.701
258.846
239.6
221.836
205.441
190.307
176.336
163.435
151.523
140.519
130.354
120.962
112.281
104.256
96.8347
89.9709
83.6205
77.7435
72.3028
67.2644
62.5971
58.272
54.2626
50.5445
47.0952
43.894
40.9222
38.1621
35.5982
33.2152
31.002
28.9418
27.0404
25.3325
0.76554
0.596971
0.473339
0.380762
0.310243
0.255722
0.212987
0.179065
0.15184
0.129768
0.111709
0.0968542
0.0846224
0.0747954
0.067769
0.0656205
0.0753559
0.117648
0.253026
0.663072
1.85808
5.07119
12.7876
29.1736
59.9938
111.828
190.647
300.383
441.635
612.012
807.042
1020.4
1245.73
1477.2
1709.69
1939.69
2163.98
2379.43
2583.71
2775.45
2953.95
3117.85
3266.25
3398.54
3514.05
3613.99
3697.02
3762.49
3810.36
3839.59
3850.65
3844.79
3822.97
3785.85
3734.18
3668.89
3590.93
3501.48
3401.77
3293.14
3176.97
3054.72
2927.83
2797.71
2665.67
2533.03
2400.87
2270.15
2141.72
2016.34
1894.67
1777.19
1664.3
1556.28
1453.33
1355.56
1263
1175.62
1093.33
1016.01
943.521
875.678
812.291
753.156
698.062
646.794
599.135
554.875
513.803
475.719
440.427
407.74
377.481
349.48
323.577
299.622
277.473
256.997
238.071
220.578
204.41
189.468
175.657
162.892
151.092
140.183
130.096
120.768
112.141
104.159
96.7745
89.9398
83.613
77.7547
72.3289
67.3021
62.6438
58.3255
54.3211
50.6065
47.1596
43.9599
40.9889
38.229
35.6649
33.2813
31.0674
29.0063
27.1047
25.3962
0.765283
0.596922
0.473651
0.38141
0.311123
0.256724
0.214022
0.18008
0.1528
0.130653
0.112508
0.0975042
0.0849977
0.0745088
0.0656458
0.0581403
0.0518178
0.0466531
0.0430285
0.0424452
0.0496528
0.078592
0.170167
0.447033
1.25118
3.40647
8.57209
19.5405
40.2124
75.1194
128.566
203.496
301.065
420.096
557.673
710.155
873.274
1043.1
1216.02
1388.99
1559.57
1725.44
1884.93
2036.36
2177.89
2309.13
2429.11
2536.53
2630.54
2711.64
2779.05
2831.54
2868.9
2889.99
2895.47
2886.64
2864.35
2829.32
2782.48
2724.89
2657.72
2582.18
2499.52
2410.98
2317.79
2221.19
2122.29
2022.11
1921.58
1821.53
1722.76
1625.89
1531.47
1439.94
1351.65
1266.87
1185.78
1108.51
1035.1
965.571
899.893
837.998
779.793
725.166
673.986
626.111
581.39
539.668
500.789
464.595
430.93
399.643
370.587
343.618
318.601
295.404
273.904
253.983
235.53
218.441
202.618
187.969
174.408
161.854
150.234
139.477
129.519
120.299
111.763
103.859
96.5386
89.7578
83.4758
77.6548
72.2597
67.2584
62.6209
58.3196
54.329
50.6256
47.1876
43.9951
41.0297
38.2742
35.7135
33.3324
31.1205
29.0609
27.1611
25.4538
0.76513
0.596903
0.473889
0.381902
0.311809
0.257519
0.214869
0.180939
0.153638
0.131445
0.113232
0.0981544
0.0855815
0.075017
0.066081
0.0584814
0.0519718
0.0463684
0.0415338
0.0373529
0.0337566
0.0307731
0.0286655
0.0283844
0.0328893
0.0508718
0.107852
0.280187
0.781752
2.1326
5.39988
12.4056
25.7829
48.7139
84.3443
135.139
202.329
285.795
383.919
494.01
613.301
739.068
868.687
999.763
1130.01
1257.71
1381.28
1499.12
1610.01
1712.96
1806.96
1890.88
1963.86
2026.11
2076.73
2114.83
2140.25
2151.95
2151.15
2138.94
2116.2
2083.72
2042.51
1993.6
1938.06
1876.99
1811.39
1742.24
1670.47
1596.94
1522.48
1447.79
1373.51
1300.19
1228.3
1158.22
1090.29
1024.72
961.729
901.429
843.908
789.207
737.333
688.267
641.963
598.354
557.36
518.89
482.843
449.113
417.588
388.159
360.712
335.136
311.324
289.168
268.567
249.421
231.636
215.122
199.793
185.568
172.372
160.131
148.778
138.251
128.489
119.437
111.044
103.262
96.0447
89.352
83.1447
77.3869
72.0453
67.089
62.4894
58.22
54.2561
50.575
47.1558
43.9788
41.0263
38.2816
35.7297
33.356
31.1502
29.0958
27.2012
25.4982
0.765048
0.596857
0.473942
0.382084
0.312124
0.257947
0.215376
0.181495
0.154215
0.132022
0.113793
0.0986927
0.0860874
0.075485
0.0665106
0.0588635
0.0523102
0.0466707
0.0417912
0.0375441
0.0338329
0.0305801
0.0277241
0.0252129
0.0230164
0.0211597
0.0197953
0.0194653
0.0218643
0.0319555
0.0642681
0.162175
0.44893
1.23296
3.16762
7.41926
15.7501
30.4066
53.7829
87.9371
134.124
192.605
262.575
342.464
430.291
523.947
621.202
720.185
819.35
917.028
1011.91
1102.48
1187.47
1266.16
1337.55
1400.62
1454.65
1500
1535.61
1561.01
1576.18
1580.59
1575.57
1562.07
1540.86
1512.75
1478.57
1439.22
1395.53
1348.31
1298.34
1246.33
1192.94
1138.78
1084.38
1030.2
976.649
924.072
872.751
822.917
774.752
728.393
683.938
641.456
600.981
562.523
526.074
491.604
459.074
428.431
399.612
372.551
347.174
323.406
301.17
280.387
260.981
242.873
225.991
210.26
195.61
181.974
169.286
157.486
146.514
136.316
126.838
118.03
109.848
102.247
95.1863
88.6276
82.5353
76.8761
71.6189
66.7348
62.1969
57.9802
54.0612
50.4184
47.0317
43.8824
40.9534
38.2286
35.6937
33.3343
31.1409
29.0972
27.2127
25.5184
0.764998
0.59689
0.474132
0.382445
0.312614
0.258528
0.216011
0.182147
0.154859
0.132638
0.114372
0.0992282
0.0865757
0.0759289
0.0669099
0.0592223
0.0526352
0.0469609
0.0420441
0.0377658
0.0340289
0.0307533
0.02787
0.0253204
0.0230587
0.0210473
0.0192551
0.0176596
0.0162457
0.0150239
0.0140723
0.0136704
0.0146936
0.0197316
0.0363417
0.0871435
0.238161
0.661508
1.74125
4.20416
9.20828
18.3249
33.3474
55.9534
87.3916
128.213
178.012
235.83
300.203
369.516
442.24
516.731
591.602
665.469
737.023
805.162
868.818
927.378
979.93
1025.68
1064.21
1095.82
1119.68
1135.67
1143.73
1144
1137.47
1124.93
1107.01
1084.36
1057.66
1027.56
994.696
959.651
922.96
885.115
846.562
807.697
768.869
730.376
692.471
655.367
619.239
584.226
550.435
517.947
486.815
457.075
428.742
401.817
376.288
352.132
329.317
307.805
287.553
268.514
250.637
233.871
218.162
203.458
189.706
176.854
164.85
153.646
143.194
133.447
124.362
115.897
108.011
100.668
93.8304
87.4653
81.5408
76.0267
70.895
66.1194
61.6751
57.5391
53.6898
50.107
46.772
43.6673
40.7766
38.0847
35.5782
33.2432
31.071
29.0458
27.1787
25.4991
0.764965
0.59688
0.474168
0.38254
0.312777
0.258751
0.216282
0.182453
0.155186
0.132977
0.114716
0.0995731
0.0869137
0.0762535
0.0672168
0.0595106
0.0529023
0.047203
0.0422644
0.0379677
0.0342135
0.0309193
0.0280168
0.0254497
0.0231729
0.0211477
0.0193419
0.0177265
0.0162759
0.0149709
0.0137953
0.0127352
0.0117829
0.0109425
0.0102507
0.00983702
0.0101176
0.012345
0.0201881
0.044673
0.118794
0.333189
0.90327
2.26228
5.14928
10.638
20.0333
34.6865
55.6907
83.6663
118.627
160.008
206.851
257.838
311.67
367.001
422.573
477.379
530.375
580.569
627.144
669.606
707.267
739.606
766.52
788.038
803.733
813.652
817.766
816.393
810.283
800.016
786.097
769.005
749.231
727.245
703.488
678.362
652.232
625.427
598.239
570.928
543.719
516.806
490.348
464.481
439.313
414.933
391.407
368.784
347.096
326.365
306.6
287.798
269.951
253.043
237.052
221.952
207.715
194.309
181.7
169.854
158.735
148.308
138.538
129.39
120.829
112.823
105.34
98.3481
91.818
85.7212
80.0309
74.7211
69.7675
65.1471
60.8379
56.8194
53.0724
49.5785
46.3208
43.2831
40.4507
37.8095
35.3469
33.0502
30.9114
28.9158
27.0756
25.4193
0.764947
0.596866
0.474183
0.382604
0.312899
0.258929
0.216511
0.182722
0.155487
0.133299
0.115043
0.0998926
0.0872213
0.0765463
0.0674935
0.0597695
0.053141
0.0474235
0.0424693
0.0381566
0.0343854
0.0310736
0.0281547
0.025574
0.0232855
0.0212496
0.0194327
0.0178058
0.0163456
0.0150317
0.0138468
0.0127759
0.0118067
0.0109277
0.0101288
0.00940194
0.00874122
0.00814717
0.00763439
0.00725878
0.00720441
0.00804031
0.0114561
0.0225133
0.0566542
0.158475
0.441072
1.14959
2.73248
5.88704
11.5348
20.7052
34.3405
53.0876
77.1687
106.265
139.689
176.48
215.565
255.868
296.388
336.27
374.7
410.932
444.391
474.661
501.267
523.894
542.585
557.291
567.807
574.219
576.549
575.072
570.33
562.752
552.705
540.529
526.565
511.138
494.545
477.062
458.931
440.37
421.574
402.711
383.929
365.355
347.095
329.236
311.849
294.992
278.71
263.034
247.987
233.584
219.829
206.724
194.264
182.437
171.232
160.631
150.615
141.166
132.26
123.876
115.99
108.579
101.621
95.0913
88.9683
83.2298
77.8543
72.8212
68.1106
63.7034
59.5812
55.7268
52.1235
48.7555
45.6079
42.6668
39.9188
37.3514
34.9535
32.7135
30.6245
28.673
26.873
25.2513
0.764936
0.596885
0.47425
0.382724
0.313066
0.259133
0.216739
0.182966
0.155737
0.133549
0.115297
0.100148
0.0874726
0.0767893
0.0677268
0.0599924
0.053353
0.0476238
0.0426561
0.0383286
0.0345425
0.0312177
0.0282875
0.0256964
0.0233973
0.0213507
0.0195231
0.0178868
0.016418
0.0150964
0.0139046
0.0128278
0.0118527
0.0109673
0.0101617
0.0094275
0.00875751
0.00814522
0.0075848
0.00707082
0.00659989
0.00617085
0.00578914
0.00547646
0.00530862
0.00552763
0.00686468
0.011508
0.0261695
0.0710568
0.201126
0.545083
1.35831
3.07019
6.29545
11.776
20.2644
32.3504
48.3262
68.1139
91.2824
117.145
144.873
173.607
202.555
231.035
258.425
284.188
307.935
329.347
348.109
364.02
377.143
387.458
394.847
399.385
401.136
400.242
397.098
392.012
385.248
377.035
367.604
357.174
345.948
334.107
321.818
309.225
296.458
283.628
270.836
258.165
245.689
233.465
221.543
209.963
198.754
187.941
177.541
167.563
158.015
148.897
140.208
131.942
124.092
116.648
109.599
102.932
96.635
90.6922
85.0897
79.8123
74.8453
70.1737
65.7828
61.6581
57.7855
54.1515
50.7425
47.546
44.5497
41.7418
39.1112
36.6473
34.3406
32.1809
30.1628
28.2745
26.5317
24.9592
0.764927
0.596893
0.474287
0.382798
0.313179
0.259285
0.216925
0.183179
0.155968
0.133786
0.115528
0.100369
0.0876861
0.0769974
0.0679271
0.0601816
0.0535308
0.0477909
0.0428125
0.0384747
0.0346794
0.0313459
0.0284071
0.0258071
0.0234991
0.0214438
0.0196083
0.0179647
0.0164892
0.0151617
0.0139645
0.0128821
0.0119011
0.0110103
0.0102001
0.00946193
0.00878826
0.00817231
0.00760787
0.00708993
0.00661458
0.00617763
0.00577526
0.00540396
0.0050614
0.00474631
0.00445969
0.00420931
0.00402413
0.00399971
0.00443185
0.00620887
0.0120419
0.0302988
0.085228
0.238339
0.622727
1.48161
3.19225
6.25176
11.2109
18.5653
28.6368
41.4898
56.9129
74.4657
93.556
113.534
133.787
153.779
173.045
191.197
207.961
223.115
236.442
247.801
257.214
264.723
270.234
273.795
275.5
275.35
273.633
270.568
266.34
261.111
255.03
248.244
240.888
233.085
224.948
216.576
208.055
199.463
190.866
182.323
173.884
165.592
157.48
149.577
141.906
134.484
127.324
120.437
113.827