/*--------------------------------*- C++ -*----------------------------------*\
| =========                 |                                                 |
| \\      /  F ield         | OpenFOAM: The Open Source CFD Toolbox           |
|  \\    /   O peration     | Version:  1.7.x                                 |
|   \\  /    A nd           | Web:      www.OpenFOAM.com                      |
|    \\/     M anipulation  |                                                 |
\*---------------------------------------------------------------------------*/
FoamFile
{
    version     2.0;
    format      ascii;
    class       volVectorField;
    location    "3800";
    object      U;
}
// * * * * * * * * * * * * * * * * * * * * * * * * * * * * * * * * * * * * * //

dimensions      [0 1 -1 0 0 0 0];

internalField   nonuniform List<vector> 
5460
(
(30.9655 0.00268382 0)
(30.9513 0.00379344 -1.18858e-18)
(30.9204 0.00440186 -1.2997e-17)
(30.8822 0.00463902 -1.73833e-16)
(30.843 0.00472154 -2.29301e-15)
(30.8032 0.00473882 -8.16239e-15)
(30.7626 0.00471485 -3.45185e-14)
(30.7215 0.00467658 -1.79202e-13)
(30.6799 0.00463789 -1.05318e-11)
(30.6379 0.00460418 -4.68784e-12)
(30.5954 0.00457704 -2.28683e-12)
(30.5524 0.00455453 -1.20667e-12)
(30.5088 0.00453777 -7.06556e-13)
(30.4645 0.00452769 -4.37182e-13)
(30.4194 0.0045244 -2.43326e-13)
(30.3735 0.00452768 -9.67671e-14)
(30.3267 0.00453823 1.2556e-14)
(30.2789 0.00455675 8.71954e-14)
(30.23 0.00458542 -9.41032e-14)
(30.1798 0.00462661 1.72676e-13)
(30.1281 0.0046851 4.35557e-13)
(30.0747 0.0047643 5.77034e-13)
(30.0192 0.00486897 5.96064e-13)
(29.9613 0.00500885 5.63682e-13)
(29.9005 0.00519189 9.29441e-13)
(29.836 0.00543116 1.55459e-12)
(29.767 0.00574362 2.30524e-12)
(29.6923 0.00614686 2.65981e-12)
(29.6105 0.00666383 2.69084e-12)
(29.5196 0.00732215 2.52412e-12)
(29.4175 0.00815101 2.25595e-12)
(29.3013 0.00918486 1.90417e-12)
(29.1677 0.0104555 1.53197e-12)
(29.0128 0.0119848 9.86141e-13)
(28.8323 0.0137812 8.02889e-13)
(28.622 0.0158273 -1.81066e-12)
(28.3777 0.0180735 -6.48949e-13)
(28.0961 0.0204372 -4.23088e-14)
(27.7751 0.0228072 2.51764e-13)
(27.4142 0.0250592 3.069e-12)
(27.0148 0.0270771 1.83067e-12)
(26.5801 0.0287703 1.02596e-12)
(26.1142 0.0300818 7.43259e-13)
(25.6224 0.0309908 5.16861e-13)
(25.1103 0.031507 -4.68134e-14)
(24.5835 0.0316623 -7.19204e-14)
(24.0471 0.0315045 4.20245e-13)
(23.5059 0.0310859 1.94039e-13)
(22.9639 0.0304561 -1.54284e-13)
(22.4246 0.0296622 -9.29737e-13)
(21.8907 0.0287482 -6.28598e-13)
(21.3646 0.0277511 5.49348e-13)
(20.848 0.0266988 2.346e-13)
(20.3421 0.0256149 -9.34215e-12)
(19.8482 0.0245208 -6.87242e-13)
(19.3667 0.0234304 4.925e-14)
(18.8983 0.0223531 4.78314e-14)
(18.4431 0.0212984 4.62307e-13)
(18.0014 0.0202719 3.50567e-13)
(17.5732 0.0192785 5.3578e-13)
(17.1583 0.0183216 1.39312e-12)
(16.7566 0.0174025 7.19312e-13)
(16.3679 0.0165234 -5.71679e-12)
(15.9919 0.0156833 -1.00628e-12)
(15.6283 0.014883 -5.29163e-13)
(15.2768 0.01412 -8.11305e-12)
(14.937 0.0133937 -1.35925e-12)
(14.6086 0.0127041 5.20273e-12)
(14.2912 0.012049 1.10921e-12)
(13.9846 0.0114279 9.13953e-13)
(13.6882 0.0108399 4.44833e-13)
(13.4018 0.0102835 7.03003e-13)
(13.125 0.00975699 -1.90867e-13)
(12.8574 0.00925879 -1.0206e-12)
(12.5987 0.00878745 -1.18892e-13)
(12.3486 0.0083417 1.04794e-13)
(12.1067 0.00791997 1.26869e-13)
(11.8727 0.00752092 4.13765e-14)
(11.6463 0.0071436 -1.42157e-12)
(11.4272 0.0067866 5.49963e-12)
(11.2152 0.00644884 3.49773e-13)
(11.01 0.0061294 7.54936e-14)
(10.8113 0.00582702 4.00662e-13)
(10.6188 0.00554118 7.21829e-13)
(10.4324 0.00527035 5.09214e-12)
(10.2518 0.00501371 1.13572e-12)
(10.0768 0.00477083 3.79013e-13)
(9.90715 0.00454086 -4.06207e-13)
(9.74269 0.00432295 -3.68065e-14)
(9.58323 0.00411634 9.68853e-13)
(9.42857 0.00392056 5.90907e-13)
(9.27854 0.00373458 -4.09899e-13)
(9.13297 0.00355863 1.30509e-12)
(8.99169 0.00339183 2.81203e-13)
(8.85455 0.0032331 6.71966e-14)
(8.7214 0.00308278 -1.00461e-12)
(8.5921 0.00294024 -5.84448e-13)
(8.4665 0.00280487 -2.02252e-12)
(8.34448 0.00267619 3.84797e-13)
(8.22591 0.00255398 4.77647e-13)
(8.11066 0.00243796 4.8975e-13)
(7.99863 0.00232761 -2.54009e-12)
(7.88969 0.00222295 1.80175e-13)
(7.78375 0.00212348 -2.08086e-13)
(7.6807 0.00202884 -2.83268e-12)
(7.58045 0.00193896 -8.66962e-13)
(7.48289 0.00185354 7.17494e-12)
(7.38794 0.00177228 6.16003e-14)
(7.29552 0.00169502 -1.00182e-12)
(7.20554 0.00162157 1.22826e-12)
(7.11792 0.00155176 -1.44328e-12)
(7.03259 0.00148532 -1.36162e-12)
(6.94947 0.00142211 -1.39268e-13)
(6.86849 0.00136186 -6.11657e-14)
(6.78958 0.00130436 -3.406e-13)
(6.71269 0.00124949 -2.41082e-13)
(6.63773 0.00119708 -1.18894e-13)
(6.56466 0.00114707 6.19779e-13)
(6.49341 0.00109912 -5.61788e-13)
(6.42394 0.0010532 -1.56235e-13)
(6.35618 0.00100916 -1.29947e-12)
(6.29011 0.000966585 1.41685e-12)
(6.22571 0.000925344 7.1468e-12)
(6.16296 0.000884094 4.99601e-13)
(6.10205 0.00084303 2.15254e-13)
(6.04291 0.00079511 1.26443e-13)
(5.98683 0.000744889 3.58207e-12)
(5.93302 0.000653833 1.1542e-13)
(5.889 0.000558412 2.06745e-12)
(5.84788 0.000268726 -3.38316e-13)
(30.8665 0.00584535 0)
(30.8541 0.00923855 -1.92677e-18)
(30.8247 0.0109308 -3.50384e-17)
(30.7875 0.0116422 -6.79188e-16)
(30.7491 0.0119839 -1.01462e-14)
(30.7098 0.0121137 -3.26761e-14)
(30.6696 0.0120981 -1.38932e-13)
(30.6287 0.0120287 -3.55867e-13)
(30.5874 0.0119497 -6.64605e-12)
(30.5455 0.0118765 -4.34934e-12)
(30.5031 0.0118157 -3.00336e-12)
(30.4601 0.0117658 -2.10897e-12)
(30.4164 0.0117299 -1.4684e-12)
(30.3721 0.0117111 -9.97032e-13)
(30.3269 0.0117099 -5.12048e-13)
(30.2809 0.0117269 -1.24704e-13)
(30.2338 0.0117632 1.48156e-13)
(30.1857 0.0118216 3.20745e-13)
(30.1363 0.0119097 -6.9747e-13)
(30.0855 0.0120343 6.64815e-13)
(30.033 0.0122066 1.38868e-12)
(29.9784 0.0124371 1.71645e-12)
(29.9214 0.0127399 1.66664e-12)
(29.8614 0.0131414 1.52807e-12)
(29.7979 0.0136654 3.06108e-12)
(29.7299 0.0143452 5.14259e-12)
(29.6564 0.015226 7.4333e-12)
(29.5761 0.0163566 7.98521e-12)
(29.4872 0.0177961 7.71579e-12)
(29.3877 0.0196152 7.07104e-12)
(29.2751 0.0218877 6.23661e-12)
(29.1467 0.0246952 5.1987e-12)
(28.9991 0.0281075 4.15157e-12)
(28.8288 0.0321652 2.16209e-12)
(28.6323 0.0368697 1.98826e-12)
(28.4062 0.0421584 -6.3253e-12)
(28.1476 0.0478963 -1.73959e-12)
(27.8544 0.0538766 4.59651e-14)
(27.5257 0.0598341 8.12272e-13)
(27.1615 0.0654795 9.03211e-12)
(26.7635 0.070542 4.87112e-12)
(26.3343 0.0748066 2.62637e-12)
(25.8776 0.0781355 2.00679e-12)
(25.3975 0.0804713 1.40688e-12)
(24.899 0.0818285 -4.87486e-13)
(24.3866 0.0822783 -3.11949e-13)
(23.8649 0.0819315 1.23812e-12)
(23.3382 0.0809132 4.7531e-13)
(22.8101 0.0793461 -5.25514e-13)
(22.284 0.0773483 -2.6532e-12)
(21.7624 0.0750301 -1.68471e-12)
(21.2476 0.072487 1.92864e-12)
(20.7413 0.0697916 7.49073e-13)
(20.245 0.0670059 -7.84175e-12)
(19.7597 0.0641859 -8.58893e-13)
(19.2861 0.0613681 2.08633e-13)
(18.8248 0.0585782 1.31309e-13)
(18.3761 0.0558423 1.32238e-12)
(17.9402 0.0531752 9.6155e-13)
(17.5172 0.0505906 1.52698e-12)
(17.1071 0.0480978 3.92521e-12)
(16.7097 0.0457011 1.99623e-12)
(16.325 0.0434064 -9.33631e-12)
(15.9525 0.0412121 -2.53951e-12)
(15.5921 0.0391197 -1.43681e-12)
(15.2435 0.0371235 -1.03423e-11)
(14.9064 0.0352223 -3.45504e-12)
(14.5804 0.0334161 4.06528e-12)
(14.2652 0.0316995 2.89315e-12)
(13.9606 0.0300711 2.62683e-12)
(13.6661 0.0285286 1.26276e-12)
(13.3813 0.0270688 2.21192e-12)
(13.1061 0.0256866 -5.77594e-13)
(12.8399 0.0243785 -2.96106e-12)
(12.5825 0.0231406 -3.04167e-13)
(12.3335 0.0219693 3.06898e-13)
(12.0927 0.0208611 3.62529e-13)
(11.8597 0.0198122 1.20498e-13)
(11.6342 0.0188201 -3.95153e-12)
(11.416 0.0178813 6.16172e-12)
(11.2047 0.0169929 8.56744e-13)
(11.0002 0.0161525 2.14005e-13)
(10.8021 0.0153569 1.25551e-12)
(10.6103 0.0146047 2.19566e-12)
(10.4244 0.0138919 6.13842e-12)
(10.2444 0.0132164 3.23502e-12)
(10.0698 0.0125769 1.06865e-12)
(9.90063 0.0119714 -1.17703e-12)
(9.73658 0.0113975 -9.54164e-14)
(9.5775 0.0108534 2.78733e-12)
(9.4232 0.0103377 1.67149e-12)
(9.2735 0.00984789 -1.17686e-12)
(9.12824 0.00938435 3.88152e-12)
(8.98725 0.00894483 7.83341e-13)
(8.85037 0.00852665 1.88877e-13)
(8.71747 0.00813055 -2.87827e-12)
(8.5884 0.0077549 -1.64666e-12)
(8.46302 0.00739812 -5.79449e-12)
(8.3412 0.00705898 1.15782e-12)
(8.22282 0.00673683 1.36125e-12)
(8.10775 0.00643101 1.38008e-12)
(7.99588 0.00614016 -7.39513e-12)
(7.8871 0.0058642 5.49607e-13)
(7.7813 0.00560195 -5.97045e-13)
(7.67839 0.00535245 -8.10396e-12)
(7.57826 0.00511544 -2.44003e-12)
(7.48082 0.0048902 8.06085e-12)
(7.38599 0.00467592 6.66017e-14)
(7.29367 0.00447216 -2.87051e-12)
(7.20379 0.00427849 3.53336e-12)
(7.11626 0.00409436 -2.61511e-12)
(7.03101 0.00391911 -3.66383e-12)
(6.94798 0.00375242 -3.72183e-13)
(6.86707 0.00359351 -1.73196e-13)
(6.78824 0.00344185 -9.68923e-13)
(6.71141 0.00329713 -6.83952e-13)
(6.63652 0.00315887 -3.37427e-13)
(6.56351 0.00302691 1.77175e-12)
(6.49232 0.00290045 -1.62649e-12)
(6.4229 0.00277933 -4.41096e-13)
(6.3552 0.00266314 -3.73285e-12)
(6.28917 0.00255081 4.05982e-12)
(6.22482 0.00244204 1.05198e-11)
(6.16211 0.00233322 1.3574e-12)
(6.10124 0.00222484 6.10068e-13)
(6.04214 0.00209848 3.57516e-13)
(5.9861 0.00196579 9.14178e-12)
(5.93232 0.00172604 3.02683e-13)
(5.88833 0.00147313 6.03928e-12)
(5.84723 0.000710666 -9.8457e-13)
(30.6615 0.00875185 -1.48276e-19)
(30.6482 0.0145928 -4.51815e-18)
(30.6182 0.0171855 -1.11997e-16)
(30.5809 0.0182494 -2.84433e-15)
(30.5425 0.0188498 -5.33985e-14)
(30.5034 0.0191068 -1.35074e-13)
(30.4633 0.0191111 -6.30526e-13)
(30.4224 0.0190277 -9.08921e-13)
(30.3811 0.0189289 1.1337e-12)
(30.3392 0.018833 -6.4834e-13)
(30.2968 0.0187519 -1.20656e-12)
(30.2537 0.018689 -1.23385e-12)
(30.21 0.0186502 -1.02587e-12)
(30.1654 0.0186417 -7.6433e-13)
(30.1199 0.0186653 2.75548e-13)
(30.0733 0.0187221 7.6074e-13)
(30.0256 0.0188174 9.7764e-13)
(29.9765 0.0189597 9.94952e-13)
(29.9257 0.0191651 -5.4468e-12)
(29.873 0.0194495 4.11057e-12)
(29.8179 0.0198329 3.60546e-12)
(29.76 0.020338 3.18381e-12)
(29.6986 0.0209949 2.3224e-12)
(29.6329 0.0218496 1.91392e-12)
(29.5619 0.0229512 9.02807e-12)
(29.4845 0.024359 1.39116e-11)
(29.3991 0.0261482 1.83392e-11)
(29.3041 0.0284013 1.48219e-11)
(29.1974 0.0312085 1.24255e-11)
(29.0766 0.0346651 1.05463e-11)
(28.9394 0.0388586 8.93784e-12)
(28.7831 0.043865 7.09975e-12)
(28.6052 0.0497209 5.46068e-12)
(28.4034 0.056405 -1.0627e-12)
(28.1757 0.0638359 2.4396e-12)
(27.9207 0.0718566 1.98783e-12)
(27.6378 0.0802417 2.14153e-12)
(27.3267 0.0887094 2.19313e-12)
(26.9877 0.0969444 2.10334e-12)
(26.6217 0.104627 3.7487e-12)
(26.2302 0.111461 3.23539e-12)
(25.8149 0.11721 2.15203e-12)
(25.3783 0.121719 2.80031e-12)
(24.9232 0.124909 1.983e-12)
(24.4526 0.126783 -2.98095e-12)
(23.9699 0.127412 -8.86373e-13)
(23.4785 0.126922 2.61832e-12)
(22.9816 0.125464 4.04588e-13)
(22.4823 0.123196 -1.36604e-12)
(21.9834 0.120277 -4.52603e-12)
(21.4874 0.116857 -2.22608e-12)
(20.9964 0.113075 5.32717e-12)
(20.512 0.109039 1.23975e-12)
(20.0358 0.104841 -2.90568e-12)
(19.5688 0.100569 6.50306e-13)
(19.1119 0.0962785 5.97544e-13)
(18.6657 0.0920124 1.77518e-13)
(18.2307 0.087812 2.28174e-12)
(17.8073 0.0837039 1.43172e-12)
(17.3957 0.0797107 2.57632e-12)
(16.9958 0.0758488 6.41869e-12)
(16.6078 0.0721274 2.96314e-12)
(16.2315 0.0685557 -6.18207e-12)
(15.8667 0.0651348 -3.22154e-12)
(15.5132 0.0618664 -2.12061e-12)
(15.171 0.0587435 -5.31082e-12)
(14.8396 0.0557656 -4.7401e-12)
(14.5188 0.0529319 -4.00307e-12)
(14.2085 0.050236 4.75264e-12)
(13.9082 0.0476759 4.59963e-12)
(13.6176 0.0452483 2.06777e-12)
(13.3366 0.0429486 4.80115e-12)
(13.0646 0.0407693 -1.28466e-12)
(12.8015 0.0387055 -5.29805e-12)
(12.5469 0.0367515 -2.75848e-13)
(12.3004 0.0349008 5.64324e-13)
(12.062 0.0331488 6.11132e-13)
(11.8311 0.0314897 2.16765e-13)
(11.6076 0.0299196 -6.09715e-12)
(11.3912 0.0284334 1.45266e-12)
(11.1817 0.0270264 1.19823e-12)
(10.9787 0.0256944 3.13938e-13)
(10.7821 0.0244332 2.69399e-12)
(10.5916 0.0232401 4.38428e-12)
(10.407 0.0221095 6.91757e-12)
(10.228 0.0210376 5.73241e-12)
(10.0545 0.0200224 1.68205e-12)
(9.88632 0.019061 -2.09358e-12)
(9.72318 0.0181495 -9.85207e-14)
(9.56494 0.0172852 4.80348e-12)
(9.41142 0.0164656 2.70706e-12)
(9.26244 0.0156873 -2.00745e-12)
(9.11786 0.0149505 7.33764e-12)
(8.97749 0.0142515 1.16146e-12)
(8.8412 0.0135866 2.97624e-13)
(8.70885 0.0129566 -4.88623e-12)
(8.58028 0.0123589 -2.62683e-12)
(8.45538 0.0117912 -9.87625e-12)
(8.334 0.0112516 2.35009e-12)
(8.21603 0.0107388 2.2694e-12)
(8.10135 0.010252 2.19245e-12)
(7.98984 0.00978911 -1.31892e-11)
(7.8814 0.00934963 1.16624e-12)
(7.77592 0.008932 -1.02277e-12)
(7.67331 0.00853468 -1.37026e-11)
(7.57346 0.00815721 -3.84426e-12)
(7.47628 0.0077984 1.17362e-12)
(7.38169 0.00745703 -1.80725e-13)
(7.2896 0.00713244 -4.89129e-12)
(7.19993 0.00682391 6.12195e-12)
(7.11261 0.00653046 -3.9045e-12)
(7.02756 0.00625113 -5.01884e-12)
(6.9447 0.0059855 -4.95438e-13)
(6.86396 0.00573222 -2.84177e-13)
(6.78529 0.00549051 -1.60599e-12)
(6.70861 0.00525983 -1.1231e-12)
(6.63386 0.0050394 -5.54839e-13)
(6.56099 0.00482902 2.98561e-12)
(6.48992 0.00462744 -2.89046e-12)
(6.42062 0.00443438 -7.08093e-13)
(6.35303 0.00424906 -6.44e-12)
(6.28711 0.00406989 6.91573e-12)
(6.22285 0.00389654 7.65014e-12)
(6.16024 0.00372303 2.05255e-12)
(6.09946 0.00355009 9.98634e-13)
(6.04044 0.00334869 5.76791e-13)
(5.98448 0.00313668 8.83592e-12)
(5.93077 0.00275511 3.2032e-13)
(5.88684 0.00234945 1.08048e-11)
(5.84579 0.00113624 -1.78875e-12)
(30.3448 0.0124384 2.16925e-19)
(30.3301 0.020767 -1.29976e-17)
(30.2988 0.02411 -3.75347e-16)
(30.2609 0.0254672 -1.2148e-14)
(30.2222 0.0263101 -3.27276e-13)
(30.1828 0.0266656 -5.59552e-13)
(30.1425 0.0266685 -3.34651e-12)
(30.1015 0.0265616 -2.84283e-12)
(30.06 0.0264361 -4.87102e-12)
(30.0179 0.0263134 -3.65901e-12)
(29.9752 0.0262141 -2.48164e-12)
(29.9318 0.0261504 -1.78499e-12)
(29.8876 0.0261309 -1.30457e-12)
(29.8423 0.0261653 -8.9164e-13)
(29.7958 0.0262596 4.67438e-12)
(29.748 0.0264194 3.27644e-12)
(29.6984 0.0266595 2.53005e-12)
(29.6468 0.027002 2.08882e-12)
(29.5926 0.0274756 1.07668e-12)
(29.5354 0.0281109 1.72503e-12)
(29.4744 0.0289476 2.07911e-12)
(29.4087 0.0300325 2.1953e-12)
(29.3373 0.0314226 -3.30365e-13)
(29.259 0.0331866 3.63547e-13)
(29.1723 0.035403 4.32333e-12)
(29.0756 0.0381642 5.39251e-12)
(28.967 0.0415688 1.16171e-11)
(28.8446 0.0457109 1.08713e-11)
(28.7062 0.0506728 1.0416e-11)
(28.5501 0.0565147 9.35949e-12)
(28.3744 0.0632597 8.16521e-12)
(28.1779 0.0708908 6.61755e-12)
(27.9598 0.0793306 4.99458e-12)
(27.7197 0.0884392 3.38043e-12)
(27.4578 0.0980332 7.20963e-12)
(27.1746 0.10789 5.41824e-12)
(26.8711 0.117767 4.50268e-12)
(26.548 0.127405 3.84248e-12)
(26.2064 0.136545 3.23192e-12)
(25.8471 0.144939 2.1226e-12)
(25.4709 0.152351 1.83119e-12)
(25.0788 0.158585 8.51686e-13)
(24.6719 0.163498 4.20282e-12)
(24.2514 0.167003 2.12782e-12)
(23.819 0.169072 -1.12721e-12)
(23.3764 0.16975 -9.49286e-13)
(22.9258 0.169137 -2.17116e-12)
(22.4695 0.16737 -8.99802e-13)
(22.0095 0.164606 -3.39668e-12)
(21.5483 0.161012 -1.02202e-12)
(21.0878 0.156756 -1.60992e-12)
(20.63 0.152002 1.19739e-12)
(20.1765 0.14688 6.42474e-13)
(19.7287 0.141509 -1.07542e-12)
(19.2878 0.136001 2.47548e-12)
(18.8548 0.130434 8.2245e-13)
(18.4304 0.124864 6.43835e-14)
(18.0154 0.11935 3.30874e-12)
(17.6101 0.11393 1.56113e-12)
(17.215 0.10864 3.7243e-12)
(16.8301 0.103504 5.3709e-12)
(16.4557 0.0985383 3.18931e-12)
(16.0918 0.0937566 -7.57025e-12)
(15.7383 0.0891652 -3.71348e-12)
(15.3952 0.0847663 -2.64649e-12)
(15.0623 0.0805544 -2.81149e-12)
(14.7394 0.0765306 -6.17689e-12)
(14.4265 0.0726932 -3.36369e-12)
(14.1232 0.0690364 1.83614e-12)
(13.8294 0.0655584 6.90977e-12)
(13.5448 0.0622557 2.71436e-12)
(13.2692 0.0591226 2.78136e-12)
(13.0022 0.0561498 -2.72273e-12)
(12.7436 0.0533321 -2.66773e-12)
(12.4932 0.0506615 2.38612e-13)
(12.2506 0.0481296 9.01481e-13)
(12.0156 0.0457305 8.72788e-13)
(11.788 0.0434566 3.36829e-13)
(11.5675 0.0413032 -8.13885e-12)
(11.3539 0.0392639 -8.6443e-13)
(11.1469 0.0373317 2.1817e-12)
(10.9463 0.035501 3.65271e-13)
(10.7518 0.0337672 -3.20426e-13)
(10.5633 0.0321257 2.61749e-12)
(10.3805 0.0305698 7.67612e-12)
(10.2033 0.0290942 4.22447e-12)
(10.0314 0.0276957 2.10158e-12)
(9.86467 0.0263707 -3.26646e-12)
(9.7029 0.0251141 1.67984e-14)
(9.54592 0.0239223 7.22934e-12)
(9.39358 0.0227915 3.63195e-12)
(9.2457 0.0217178 -3.00376e-12)
(9.10213 0.0207009 3.92314e-12)
(8.96272 0.0197353 1.23636e-12)
(8.82731 0.0188172 3.87304e-13)
(8.69578 0.017947 -7.18057e-12)
(8.56799 0.0171208 -3.43165e-12)
(8.4438 0.0163361 -1.4466e-11)
(8.32309 0.0155903 -2.9472e-12)
(8.20575 0.0148813 -3.6524e-13)
(8.09165 0.0142081 2.90135e-12)
(7.98069 0.0135679 -1.32763e-11)
(7.87276 0.0129598 -1.07261e-12)
(7.76776 0.0123819 -1.51456e-12)
(7.6656 0.011832 -1.3362e-11)
(7.56617 0.0113096 -4.85988e-12)
(7.46939 0.0108128 -3.50229e-12)
(7.37517 0.0103402 -4.28384e-13)
(7.28343 0.00989081 -7.13737e-12)
(7.19409 0.00946354 3.08882e-12)
(7.10707 0.0090571 -5.27453e-12)
(7.02231 0.00867014 -5.40196e-12)
(6.93972 0.00830205 -4.44087e-13)
(6.85924 0.00795111 -3.92325e-13)
(6.78081 0.00761629 -2.2522e-12)
(6.70436 0.00729662 -1.54615e-12)
(6.62983 0.00699115 -7.65474e-13)
(6.55715 0.0066996 4.32792e-12)
(6.48628 0.0064202 -4.44737e-12)
(6.41715 0.00615263 -9.24827e-13)
(6.34973 0.00589566 -9.52848e-12)
(6.28398 0.00564719 1.02162e-11)
(6.21987 0.005407 6.43502e-12)
(6.1574 0.00516644 2.66602e-12)
(6.09676 0.00492649 1.37088e-12)
(6.03787 0.00464727 7.80224e-13)
(5.98202 0.00435301 5.16782e-12)
(5.92842 0.00382411 1.77296e-13)
(5.88458 0.00325993 7.10297e-12)
(5.84361 0.00157848 -2.88165e-12)
(29.9075 0.0169343 -3.02524e-18)
(29.8902 0.0276066 -5.37043e-17)
(29.8569 0.031366 -1.0233e-15)
(29.8181 0.0328943 -4.33234e-14)
(29.7788 0.0339244 -2.22853e-12)
(29.7389 0.0343205 -1.82247e-12)
(29.6982 0.0342898 -1.85288e-12)
(29.6569 0.0341487 -1.8272e-12)
(29.615 0.0339973 -2.05727e-12)
(29.5724 0.0338615 -1.99013e-12)
(29.5291 0.0337731 -1.77745e-12)
(29.4848 0.033755 -1.53047e-12)
(29.4393 0.0338228 -1.29737e-12)
(29.3922 0.0339937 -1.04428e-12)
(29.3433 0.0342846 1.86548e-12)
(29.292 0.0347151 1.78618e-12)
(29.2378 0.0353178 1.67499e-12)
(29.18 0.0361397 1.57948e-12)
(29.1178 0.0372299 1.41129e-12)
(29.0501 0.0386438 1.40443e-12)
(28.9757 0.0404508 1.46446e-12)
(28.8934 0.0427286 1.52571e-12)
(28.8016 0.0455654 1.17879e-12)
(28.6985 0.0490438 1.02887e-12)
(28.5827 0.0532446 1.53133e-12)
(28.4522 0.0582534 2.06427e-12)
(28.3057 0.0641334 3.4825e-12)
(28.1418 0.0709108 4.53901e-12)
(27.9596 0.078568 5.14314e-12)
(27.7588 0.0870408 5.29999e-12)
(27.5393 0.0962219 5.14232e-12)
(27.3019 0.105969 5.2279e-12)
(27.0475 0.116106 4.6361e-12)
(26.7774 0.126438 3.86202e-12)
(26.4928 0.136776 4.26447e-12)
(26.1951 0.146938 4.51886e-12)
(25.8854 0.156764 4.65303e-12)
(25.5646 0.166096 4.27034e-12)
(25.2334 0.174784 3.635e-12)
(24.8922 0.182684 -1.06056e-13)
(24.5413 0.189642 6.88182e-13)
(24.1807 0.195515 -1.7131e-12)
(23.8106 0.200181 9.20579e-13)
(23.4311 0.203544 8.34245e-13)
(23.0429 0.205547 -2.90956e-12)
(22.6464 0.206189 -1.38416e-12)
(22.2428 0.205519 -2.03415e-12)
(21.8332 0.203632 -1.55221e-12)
(21.4191 0.200652 -2.13159e-12)
(21.002 0.196723 -1.49557e-12)
(20.5837 0.192007 -1.40732e-12)
(20.1657 0.186669 -9.97176e-14)
(19.7494 0.18085 1.7981e-13)
(19.3362 0.17468 -4.30988e-13)
(18.9274 0.168288 1.05482e-12)
(18.524 0.161772 3.24014e-13)
(18.1268 0.155202 -3.28503e-13)
(17.7367 0.148649 1.45478e-12)
(17.3543 0.142166 1.04059e-12)
(16.98 0.135803 5.04662e-12)
(16.6142 0.129594 4.79301e-12)
(16.2572 0.123563 3.13793e-12)
(15.9092 0.117731 -6.57634e-12)
(15.5702 0.112111 -3.73049e-12)
(15.2404 0.106706 -3.06137e-12)
(14.9195 0.101517 -1.07588e-12)
(14.6078 0.096547 -3.36787e-12)
(14.3049 0.0917932 -2.52574e-12)
(14.0109 0.0872531 5.37671e-13)
(13.7256 0.0829261 5.68981e-12)
(13.4487 0.0788089 3.00728e-12)
(13.1801 0.0748955 2.35347e-12)
(12.9196 0.0711769 -5.07606e-13)
(12.667 0.0676471 -9.92315e-13)
(12.4221 0.0642969 9.30283e-13)
(12.1846 0.0611168 1.29264e-12)
(11.9542 0.0580999 1.14136e-12)
(11.7309 0.0552369 4.80877e-13)
(11.5143 0.052523 -1.04025e-11)
(11.3043 0.0499508 -5.63298e-12)
(11.1007 0.0475109 2.84973e-13)
(10.9032 0.0451976 3.23922e-13)
(10.7116 0.0430052 9.29605e-13)
(10.5257 0.0409276 2.16436e-12)
(10.3454 0.0389578 5.4847e-12)
(10.1704 0.0370883 3.59217e-12)
(10.0006 0.0353152 2.47372e-12)
(9.83584 0.0336341 -1.49532e-12)
(9.67588 0.0320393 3.46981e-13)
(9.52059 0.0305259 1.05152e-11)
(9.36981 0.0290892 4.36909e-12)
(9.22339 0.0277251 -1.16597e-12)
(9.08118 0.026432 2.52779e-12)
(8.94302 0.0252035 1.22112e-12)
(8.80879 0.0240356 4.71609e-13)
(8.67836 0.022928 -1.01036e-11)
(8.55158 0.0218757 -3.95425e-12)
(8.42835 0.0208761 -1.98215e-11)
(8.30853 0.0199262 -6.48893e-12)
(8.19202 0.0190226 -2.31666e-12)
(8.0787 0.0181646 9.88308e-13)
(7.96847 0.0173484 -1.02493e-11)
(7.86123 0.0165725 -2.36889e-12)
(7.75687 0.0158353 -1.99111e-12)
(7.6553 0.0151336 -1.50025e-11)
(7.55643 0.014467 -5.55037e-12)
(7.46018 0.0138329 -2.35966e-12)
(7.36646 0.0132295 -5.09739e-13)
(7.27518 0.0126557 -4.93127e-12)
(7.18628 0.01211 1.42922e-12)
(7.09967 0.0115908 -2.35653e-12)
(7.0153 0.0110965 5.64292e-14)
(6.93307 0.010626 -2.14556e-13)
(6.85294 0.0101774 -5.03045e-13)
(6.77483 0.00974963 -2.9154e-12)
(6.69868 0.00934101 -1.94366e-12)
(6.62443 0.00895056 -9.66164e-13)
(6.55203 0.00857781 5.94753e-12)
(6.48141 0.00822052 -6.36053e-12)
(6.41252 0.00787837 -1.04745e-12)
(6.34533 0.00754963 -9.11329e-12)
(6.27979 0.00723179 1.44443e-11)
(6.21589 0.0069247 5.83975e-12)
(6.15361 0.00661698 3.24241e-12)
(6.09315 0.00630978 1.7226e-12)
(6.03443 0.0059525 9.70009e-13)
(5.97874 0.00557581 -8.64929e-13)
(5.92529 0.00489879 -4.52059e-14)
(5.88156 0.00417564 5.4036e-12)
(5.84068 0.00202315 -4.21706e-12)
(29.3327 0.0223466 -1.72524e-17)
(29.3126 0.0351244 -2.64306e-16)
(29.2773 0.0388724 -1.38516e-15)
(29.2378 0.0405022 -1.87314e-14)
(29.1981 0.0417077 -4.75892e-13)
(29.1578 0.0421078 -7.17475e-13)
(29.1166 0.0420356 -8.5993e-13)
(29.0747 0.0418817 -9.35643e-13)
(29.032 0.0417486 -1.02779e-12)
(28.9883 0.0416719 -1.08799e-12)
(28.9433 0.0416988 -1.10712e-12)
(28.8965 0.0418693 -1.09342e-12)
(28.8475 0.0422169 -1.05638e-12)
(28.7957 0.0427791 -9.83223e-13)
(28.7402 0.0435945 -1.73524e-13)
(28.6801 0.044708 2.76845e-13)
(28.6145 0.0461842 4.72417e-13)
(28.5421 0.0481018 5.55559e-13)
(28.4616 0.0505384 5.97988e-13)
(28.3713 0.0535734 6.41378e-13)
(28.2699 0.0572925 7.55561e-13)
(28.1558 0.0617728 8.75304e-13)
(28.0274 0.0670796 8.70256e-13)
(27.8836 0.0732538 7.86927e-13)
(27.7234 0.0802972 7.96549e-13)
(27.5463 0.088177 9.99242e-13)
(27.3524 0.0968225 1.40735e-12)
(27.1423 0.106122 1.88464e-12)
(26.9168 0.115926 2.30564e-12)
(26.6773 0.126065 2.58623e-12)
(26.4253 0.136371 2.7678e-12)
(26.1625 0.146682 5.75853e-12)
(25.8902 0.156848 4.49401e-12)
(25.61 0.16674 3.62934e-12)
(25.323 0.176258 3.18221e-12)
(25.0302 0.185322 3.44529e-12)
(24.7322 0.193875 3.89574e-12)
(24.4293 0.20186 3.89491e-12)
(24.1219 0.209217 3.47677e-12)
(23.8097 0.215881 1.12668e-12)
(23.4925 0.221762 6.52132e-13)
(23.1699 0.22676 -8.11488e-13)
(22.8414 0.23077 -1.20692e-13)
(22.5067 0.233694 -2.02888e-13)
(22.1655 0.23545 -2.36636e-12)
(21.8177 0.235993 -1.36869e-12)
(21.4635 0.235318 -3.1528e-12)
(21.1034 0.233465 -1.99472e-12)
(20.7381 0.230509 -1.8963e-12)
(20.3686 0.226555 -1.54955e-12)
(19.996 0.221733 -1.262e-12)
(19.6215 0.216193 -4.93751e-13)
(19.2465 0.21007 -6.53931e-14)
(18.872 0.203495 -2.14049e-13)
(18.4993 0.1966 -1.1489e-14)
(18.1295 0.189494 -3.8939e-13)
(17.7635 0.182265 -8.90301e-13)
(17.4021 0.174989 9.12895e-14)
(17.0461 0.167736 3.51474e-13)
(16.6962 0.160566 4.61509e-12)
(16.3528 0.153526 4.27212e-12)
(16.0164 0.146649 2.96946e-12)
(15.6872 0.139964 -4.09191e-12)
(15.3654 0.133493 -3.37362e-12)
(15.0514 0.127243 -3.46629e-12)
(14.745 0.121221 -3.48682e-12)
(14.4465 0.115433 -1.74625e-12)
(14.1559 0.109878 -1.87834e-12)
(13.873 0.104558 -5.4042e-14)
(13.5979 0.0994748 6.18093e-12)
(13.3304 0.0946252 3.20958e-12)
(13.0705 0.0900055 2.34918e-12)
(12.8179 0.0856076 6.98655e-13)
(12.5726 0.0814248 8.54224e-14)
(12.3343 0.0774478 1.66149e-12)
(12.1029 0.0736673 1.69472e-12)
(11.8783 0.070075 1.40466e-12)
(11.6602 0.0666612 6.54999e-13)
(11.4485 0.063421 -1.03995e-11)
(11.2429 0.0603464 -9.17321e-12)
(11.0434 0.0574264 -2.56837e-14)
(10.8497 0.0546558 3.23585e-13)
(10.6616 0.0520272 1.7111e-12)
(10.479 0.0495334 2.06968e-12)
(10.3017 0.0471679 4.17244e-12)
(10.1295 0.044921 3.20201e-12)
(9.96236 0.0427879 2.84467e-12)
(9.79999 0.0407643 -4.29443e-13)
(9.64228 0.0388434 7.87755e-13)
(9.48907 0.0370193 9.71084e-12)
(9.34023 0.0352865 4.75728e-12)
(9.19561 0.0336411 4.29341e-14)
(9.05508 0.03208 1.90365e-12)
(8.91849 0.0305958 1.1772e-12)
(8.78571 0.0291849 5.72289e-13)
(8.65664 0.0278461 -9.04878e-12)
(8.53113 0.026573 -4.03131e-12)
(8.40909 0.0253635 -2.18007e-11)
(8.29038 0.024214 -8.81278e-12)
(8.1749 0.0231201 -3.80656e-12)
(8.06255 0.022081 -4.85964e-13)
(7.95323 0.0210921 -8.9662e-12)
(7.84684 0.0201516 -3.19777e-12)
(7.74327 0.0192579 -2.41436e-12)
(7.64245 0.0184071 -1.39572e-11)
(7.54428 0.0175985 -5.8865e-12)
(7.44869 0.0168292 -1.33115e-12)
(7.35558 0.016097 -5.16692e-13)
(7.26489 0.0154006 -3.59507e-12)
(7.17653 0.014738 4.67541e-13)
(7.09043 0.0141077 -2.58446e-13)
(7.00654 0.0135074 1.93688e-12)
(6.92477 0.0129356 -7.23255e-15)
(6.84506 0.0123906 -6.27076e-13)
(6.76735 0.0118708 -3.6255e-12)
(6.69158 0.0113742 -2.30715e-12)
(6.61769 0.0108997 -1.15499e-12)
(6.54562 0.0104465 8.21338e-12)
(6.47532 0.0100121 -5.27705e-12)
(6.40674 0.00959604 -1.02139e-12)
(6.33983 0.00919619 -9.71312e-12)
(6.27455 0.00880962 1.63839e-11)
(6.21091 0.0084361 5.36376e-12)
(6.14887 0.00806176 3.80728e-12)
(6.08863 0.00768777 2.05098e-12)
(6.03013 0.00725295 1.15292e-12)
(5.97463 0.00679438 -3.26962e-12)
(5.92136 0.00596984 -2.15161e-13)
(5.87779 0.0050886 4.48066e-12)
(5.83703 0.00246646 -5.79376e-12)
(28.6038 0.0292337 -1.04875e-16)
(28.5788 0.043614 -1.8905e-15)
(28.5407 0.0467286 -6.38843e-15)
(28.5003 0.048392 -4.15339e-14)
(28.4599 0.0497517 -1.67712e-12)
(28.4186 0.0501282 -1.23662e-12)
(28.3763 0.0500458 -9.50537e-13)
(28.3329 0.0499622 -7.74915e-13)
(28.2878 0.0499831 -8.56747e-13)
(28.2405 0.0501766 -9.12417e-13)
(28.1903 0.0506218 -9.49826e-13)
(28.1364 0.0513881 -9.71781e-13)
(28.0775 0.0525408 -9.78259e-13)
(28.0126 0.0541492 -9.29028e-13)
(27.9403 0.056279 2.11608e-12)
(27.8591 0.0590003 1.26189e-12)
(27.7675 0.0624028 4.43195e-13)
(27.664 0.0665761 5.32167e-14)
(27.5471 0.0715828 -9.42394e-14)
(27.4157 0.0774582 -9.91947e-14)
(27.2688 0.0842157 3.51256e-13)
(27.1061 0.0918261 5.59274e-13)
(26.9276 0.100215 4.05906e-13)
(26.734 0.109281 1.04047e-13)
(26.526 0.11889 5.91746e-14)
(26.3053 0.128871 6.64033e-13)
(26.0733 0.139051 9.30321e-13)
(25.832 0.149265 1.07857e-12)
(25.5829 0.159362 1.19853e-12)
(25.3279 0.169213 1.26499e-12)
(25.0682 0.178723 1.35741e-12)
(24.8051 0.187827 2.76992e-12)
(24.5395 0.196474 2.90882e-12)
(24.2721 0.204633 2.63925e-12)
(24.0034 0.212289 2.11778e-12)
(23.7337 0.219446 2.01242e-12)
(23.4631 0.226111 3.26515e-12)
(23.1914 0.232286 3.35535e-12)
(22.9183 0.237965 3.00075e-12)
(22.6435 0.243123 -1.12982e-13)
(22.3663 0.247711 2.15472e-13)
(22.0862 0.251656 -1.91896e-12)
(21.8024 0.254866 -7.01332e-13)
(21.5143 0.257243 -1.07815e-12)
(21.2211 0.25869 -3.48381e-12)
(20.9224 0.259128 -1.27276e-12)
(20.6179 0.258509 -2.19964e-12)
(20.3075 0.256818 -1.86953e-12)
(19.9914 0.254081 -1.72108e-12)
(19.6702 0.250355 -1.42985e-12)
(19.3445 0.245728 -1.07816e-12)
(19.0152 0.24032 -5.48087e-13)
(18.6832 0.234248 -1.54228e-13)
(18.3496 0.227632 -1.36395e-13)
(18.0155 0.220596 -1.03037e-12)
(17.6817 0.213256 -1.14063e-12)
(17.3494 0.205704 -1.53336e-12)
(17.0195 0.198028 -8.92332e-13)
(16.6926 0.190306 -2.76319e-13)
(16.3696 0.182609 5.42628e-12)
(16.0511 0.174995 3.86515e-12)
(15.7376 0.167508 2.736e-12)
(15.4296 0.160187 -3.57275e-12)
(15.1273 0.153061 -3.00104e-12)
(14.8312 0.146143 -3.96992e-12)
(14.5414 0.139448 -2.0406e-12)
(14.258 0.132987 -1.68623e-13)
(13.9813 0.126762 -1.56858e-12)
(13.7112 0.120781 -3.89963e-13)
(13.4479 0.115047 4.97158e-12)
(13.1913 0.109561 3.24222e-12)
(12.9413 0.104321 2.43263e-12)
(12.6979 0.0993206 1.36067e-12)
(12.4611 0.0945535 7.71377e-13)
(12.2306 0.0900119 2.33371e-12)
(12.0064 0.0856869 2.05908e-12)
(11.7884 0.0815697 1.64693e-12)
(11.5765 0.0776502 8.50361e-13)
(11.3704 0.0739244 -8.89894e-12)
(11.1701 0.070384 -9.68741e-12)
(10.9754 0.0670171 -1.56979e-12)
(10.7862 0.0638192 3.02737e-13)
(10.6023 0.0607814 2.47261e-12)
(10.4235 0.0578956 2.07085e-12)
(10.2498 0.0551562 3.37664e-12)
(10.0809 0.0525518 2.90307e-12)
(9.91682 0.0500768 3.25717e-12)
(9.7573 0.0477271 2.04805e-13)
(9.60224 0.0454949 1.38394e-12)
(9.4515 0.0433733 1.06974e-11)
(9.30496 0.0413568 4.90385e-12)
(9.16248 0.0394411 8.43291e-13)
(9.02394 0.0376219 1.605e-12)
(8.88921 0.0358911 1.12664e-12)
(8.75817 0.0342455 6.94434e-13)
(8.63071 0.0326828 -9.15175e-12)
(8.50671 0.031196 -3.71245e-12)
(8.38607 0.0297826 -2.15968e-11)
(8.26869 0.0284393 -1.02525e-11)
(8.15444 0.0271602 -4.93799e-12)
(8.04325 0.0259447 -1.66812e-12)
(7.93501 0.0247874 -8.61372e-12)
(7.82962 0.0236864 -3.7517e-12)
(7.72701 0.0226397 -2.77256e-12)
(7.62708 0.0216431 -1.4442e-11)
(7.52975 0.0206953 -5.93139e-12)
(7.43493 0.0197936 -2.19048e-13)
(7.34256 0.0189352 -5.07164e-13)
(7.25256 0.0181182 -2.76484e-12)
(7.16485 0.0173411 -1.15427e-13)
(7.07937 0.0166015 1.48607e-12)
(6.99605 0.0158969 4.44435e-12)
(6.91482 0.0152255 1.13479e-13)
(6.83562 0.0145854 -7.73941e-13)
(6.75839 0.0139751 -4.46941e-12)
(6.68307 0.0133917 -2.62723e-12)
(6.60961 0.0128342 -1.33247e-12)
(6.53794 0.0123017 8.32362e-12)
(6.46802 0.0117911 -4.60335e-12)
(6.3998 0.011302 -8.74562e-13)
(6.33323 0.0108321 -8.33213e-12)
(6.26828 0.0103776 1.67198e-11)
(6.20493 0.00993823 4.75269e-12)
(6.14318 0.00949791 4.3825e-12)
(6.08321 0.0090579 2.35458e-12)