/*--------------------------------*- C++ -*----------------------------------*\
| =========                 |                                                 |
| \\      /  F ield         | OpenFOAM: The Open Source CFD Toolbox           |
|  \\    /   O peration     | Version:  1.7.x                                 |
|   \\  /    A nd           | Web:      www.OpenFOAM.com                      |
|    \\/     M anipulation  |                                                 |
\*---------------------------------------------------------------------------*/
FoamFile
{
    version     2.0;
    format      ascii;
    class       volScalarField;
    location    "3900";
    object      k;
}
// * * * * * * * * * * * * * * * * * * * * * * * * * * * * * * * * * * * * * //

dimensions      [0 2 -2 0 0 0 0];

internalField   nonuniform List<scalar> 
5460
(
2.80734
2.80981
2.81193
2.81382
2.81558
2.81729
2.81903
2.82084
2.82276
2.82483
2.82709
2.82959
2.83235
2.83544
2.83891
2.84289
2.84751
2.85296
2.85953
2.86759
2.87761
2.89026
2.90641
2.92723
2.95421
2.98927
3.03494
3.09444
3.17188
3.27241
3.40241
3.56959
3.78299
4.05268
4.3892
4.80237
5.29979
5.88487
6.55514
7.30111
8.10636
8.94875
9.80268
10.6417
11.4412
12.18
12.8416
13.4148
13.8933
14.275
14.5616
14.7568
14.8672
14.9006
14.8634
14.7631
14.6089
14.4078
14.1666
13.8915
13.5886
13.2637
12.9219
12.5678
12.2048
11.8359
11.4634
11.0894
10.7161
10.3456
9.97985
9.62044
9.26854
8.92512
8.591
8.26547
7.9496
7.64348
7.34718
7.0608
6.78435
6.51779
6.26101
6.01381
5.77599
5.54728
5.32742
5.11616
4.91323
4.71839
4.53137
4.35192
4.17978
4.0147
3.85641
3.70467
3.55921
3.41979
3.28619
3.15815
3.03546
2.91788
2.80522
2.69726
2.59379
2.49463
2.39958
2.30846
2.22111
2.13736
2.05704
1.98001
1.90613
1.83527
1.76728
1.70206
1.63947
1.57941
1.52178
1.46646
1.41336
1.36238
1.31342
1.26641
1.22125
1.17786
1.13618
1.09608
1.05781
1.02283
2.88939
2.89036
2.89151
2.89283
2.8943
2.89594
2.89775
2.89975
2.90196
2.90438
2.90706
2.91004
2.91338
2.91713
2.92142
2.9264
2.93228
2.93937
2.94804
2.95885
2.97246
2.98978
3.01203
3.04073
3.07785
3.12588
3.18798
3.26814
3.37124
3.50326
3.67121
3.88314
4.14777
4.47396
4.86983
5.34152
5.89195
6.51959
7.2177
7.97414
8.77199
9.59072
10.4079
11.2011
11.9495
12.6353
13.2449
13.7688
14.2019
14.5427
14.7927
14.9559
15.0386
15.0472
14.989
14.8712
14.7017
14.4876
14.2351
13.9505
13.6394
13.3075
12.9597
12.6004
12.2331
11.8604
11.4846
11.1079
10.7323
10.3597
9.9922
9.63126
9.27803
8.93347
8.59816
8.27191
7.9553
7.64852
7.35164
7.06475
6.78786
6.52091
6.26378
6.01628
5.77819
5.54925
5.32918
5.11774
4.91465
4.71966
4.53251
4.35295
4.18072
4.01554
3.85718
3.70536
3.55984
3.42037
3.28671
3.15863
3.03589
2.91828
2.80558
2.69759
2.5941
2.49491
2.39984
2.3087
2.22133
2.13756
2.05723
1.98018
1.90629
1.83541
1.76742
1.70218
1.63959
1.57952
1.52188
1.46656
1.41345
1.36246
1.3135
1.26648
1.22132
1.17792
1.13624
1.09614
1.05786
1.02288
3.05514
3.05667
3.0584
3.06037
3.06256
3.06497
3.06763
3.07054
3.07373
3.07721
3.08108
3.08539
3.09026
3.09586
3.10242
3.11024
3.11976
3.13153
3.1463
3.16502
3.18892
3.21955
3.25889
3.30947
3.37435
3.45728
3.56284
3.69644
3.86433
4.07344
4.33104
4.64422
5.01914
5.46018
5.96903
6.54409
7.18019
7.8686
8.59762
9.35314
10.1194
10.8799
11.6179
12.3175
12.9644
13.5464
14.0543
14.4819
14.8259
15.0858
15.2637
15.3631
15.3902
15.3499
15.2491
15.0951
14.8945
14.6535
14.3781
14.0737
13.7457
13.3992
13.0391
12.6691
12.2926
11.9121
11.5296
11.1471
10.7665
10.3896
10.0184
9.65424
9.2982
8.95127
8.61368
8.28567
7.96747
7.65929
7.36118
7.07321
6.79537
6.52759
6.26973
6.02159
5.78292
5.55347
5.33297
5.12113
4.9177
4.7224
4.53499
4.35518
4.18273
4.01737
3.85883
3.70686
3.5612
3.42161
3.28784
3.15966
3.03683
2.91914
2.80637
2.69831
2.59476
2.49551
2.40039
2.30921
2.2218
2.13799
2.05763
1.98056
1.90664
1.83573
1.76772
1.70246
1.63985
1.57976
1.5221
1.46676
1.41364
1.36264
1.31367
1.26663
1.22146
1.17805
1.13636
1.09625
1.05797
1.02298
3.30093
3.30321
3.30604
3.30936
3.31308
3.31709
3.32143
3.32612
3.33119
3.33675
3.34295
3.34998
3.35814
3.36782
3.37953
3.39398
3.41207
3.43496
3.4641
3.50136
3.54891
3.60967
3.68708
3.78507
3.90839
4.0625
4.25342
4.48748
4.77097
5.10945
5.50708
5.96588
6.48511
7.06103
7.68698
8.35385
9.05076
9.76577
10.4865
11.2008
11.8966
12.5627
13.1882
13.7636
14.2804
14.7317
15.1121
15.4189
15.6509
15.8083
15.8941
15.9114
15.8661
15.7623
15.6056
15.4032
15.1609
14.8839
14.5773
14.246
13.8949
13.5285
13.1512
12.7664
12.3772
11.9857
11.5937
11.2031
10.8154
10.4326
10.0561
9.68735
9.32732
8.97702
8.63634
8.30565
7.98516
7.67495
7.37508
7.08556
6.80635
6.53737
6.27844
6.02936
5.78987
5.55969
5.33853
5.12613
4.92219
4.72645
4.53863
4.35848
4.18571
4.02007
3.86128
3.70908
3.56322
3.42345
3.28952
3.16119
3.03823
2.92042
2.80754
2.69939
2.59575
2.49642
2.40123
2.30998
2.22251
2.13865
2.05823
1.98111
1.90716
1.83621
1.76816
1.70287
1.64023
1.58012
1.52243
1.46707
1.41392
1.3629
1.31391
1.26686
1.22167
1.17825
1.13654
1.09642
1.05813
1.02313
3.62082
3.62493
3.62989
3.63543
3.64143
3.64786
3.65478
3.66231
3.67061
3.67991
3.69065
3.70335
3.71869
3.73762
3.76133
3.79133
3.82951
3.87817
3.94011
4.0187
4.11735
4.24141
4.39661
4.58728
4.81913
5.09808
5.42919
5.81612
6.26059
6.76186
7.31641
7.91807
8.55841
9.22747
9.91445
10.6085
11.2993
11.9769
12.6327
13.2585
13.847
14.3913
14.8855
15.3239
15.7022
16.0168
16.265
16.4469
16.5626
16.6129
16.6012
16.5316
16.4081
16.235
16.0173
15.7616
15.4726
15.1549
14.8129
14.4508
14.073
13.6836
13.2862
12.8841
12.4799
12.0754
11.6722
11.2718
10.8757
10.4855
10.1026
9.72839
9.36349
9.00907
8.66467
8.33068
8.00734
7.69465
7.39259
7.10114
6.82023
6.54974
6.28949
6.03924
5.7987
5.5676
5.34564
5.13251
4.92794
4.73163
4.54331
4.36271
4.18954
4.02354
3.86443
3.71195
3.56584
3.42583
3.29169
3.16317
3.04005
2.92208
2.80907
2.70078
2.59703
2.4976
2.40231
2.31098
2.22343
2.1395
2.05902
1.98184
1.90783
1.83684
1.76874
1.70341
1.64073
1.58059
1.52287
1.46748
1.4143
1.36325
1.31424
1.26716
1.22195
1.17851
1.13678
1.09665
1.05835
1.02334
4.00797
4.01504
4.02325
4.03201
4.04135
4.05148
4.06267
4.07528
4.0898
4.10696
4.12783
4.15369
4.1862
4.22744
4.27994
4.34675
4.43142
4.53806
4.67131
4.83624
5.03759
5.28097
5.57315
5.91743
6.31505
6.76736
7.27321
7.82864
8.42727
9.06081
9.71955
10.3933
11.0718
11.7456
12.4063
13.0464
13.6598
14.241
14.7856
15.2893
15.7483
16.159
16.5179
16.8217
17.0681
17.2552
17.3816
17.4487
17.4576
17.4097
17.3077
17.1559
16.9581
16.7185
16.4423
16.1345
15.7994
15.441
15.0633
14.67
14.2648
13.8514
13.4332
13.0129
12.5928
12.1744
11.7591
11.3482
10.943
10.5449
10.1551
9.77478
9.40451
9.04542
8.69699
8.35932
8.0328
7.71731
7.41278
7.11915
6.83632
6.56413
6.30236
6.05077
5.80904
5.57688
5.35398
5.14002
4.93471
4.73774
4.54884
4.36772
4.19409
4.02767
3.86818
3.71537
3.56895
3.42867
3.29429
3.16555
3.04222
2.92408
2.8109
2.70246
2.59857
2.49902
2.40362
2.31219
2.22455
2.14053
2.05997
1.98273
1.90865
1.8376
1.76945
1.70407
1.64135
1.58116
1.5234
1.46797
1.41476
1.36368
1.31464
1.26753
1.22229
1.17883
1.13708
1.09692
1.05861
1.02359
4.45118
4.46279
4.47609
4.49035
4.50591
4.5234
4.54364
4.56776
4.59719
4.63384
4.68027
4.7394
4.81473
4.91032
5.03076
5.18106
5.36647
5.59226
5.86338
6.184
6.55701
6.98258
7.46047
7.98915
8.56261
9.17297
9.81136
10.4683
11.1343
11.8001
12.4571
13.0981
13.7168
14.308
14.8679
15.3937
15.8829
16.3337
16.7446
17.1139
17.4397
17.7199
17.9523
18.1346
18.2651
18.3426
18.3667
18.3375
18.2562
18.1259
17.9481
17.7264
17.4655
17.1691
16.8419
16.4883
16.1122
15.7173
15.3071
14.885
14.4544
14.0185
13.5805
13.1428
12.7073
12.2754
11.8483
11.4271
11.0129
10.6068
10.2101
9.82357
9.44795
9.08392
8.73134
8.38995
8.06013
7.74172
7.43461
7.13869
6.85383
6.57982
6.31645
6.06342
5.82041
5.58712
5.3632
5.14834
4.94223
4.74455
4.55501
4.37332
4.19918
4.0323
3.8724
3.71922
3.57247
3.43189
3.29723
3.16824
3.04469
2.92635
2.81298
2.70438
2.60034
2.50065
2.40512
2.31358
2.22583
2.14172
2.06107
1.98375
1.9096
1.83849
1.77027
1.70484
1.64206
1.58182
1.52402
1.46855
1.4153
1.36418
1.3151
1.26797
1.2227
1.1792
1.13743
1.09725
1.05892
1.02388
4.94239
4.96156
4.98412
5.0095
5.03893
5.07415
5.11754
5.17216
5.24159
5.33015
5.44297
5.58543
5.76319
5.98193
6.24686
6.5623
6.93112
7.35427
7.83039
8.35578
8.92463
9.52877
10.1579
10.8044
11.4607
12.1168
12.7642
13.3963
14.0078
14.594
15.1512
15.6767
16.1685
16.6255
17.0469
17.4326
17.7828
18.097
18.3752
18.6169
18.8208
18.9856
19.1092
19.1897
19.2254
19.2149
19.1585
19.0549
18.9042
18.7103
18.4748
18.2003
17.8912
17.5511
17.1841
16.7944
16.3856
15.9612
15.5245
15.0786
14.6267
14.1718
13.7168
13.2639
12.815
12.3711
11.9335
11.5029
11.0804
10.6671
10.2639
9.87165
9.49112
9.12242
8.76572
8.42079
8.08779
7.76654
7.4569
7.15873
6.87186
6.59606
6.33107
6.0766
5.8323
5.59785
5.37291
5.15713
4.9502
4.75178
4.56159
4.3793
4.20463
4.03727
3.87694
3.72337
3.57627
3.43537
3.30042
3.17118
3.04739
2.92883
2.81527
2.70649
2.60228
2.50244
2.40678
2.31511
2.22725
2.14303
2.06229
1.98488
1.91066
1.83947
1.77119
1.70569
1.64285
1.58257
1.52471
1.46919
1.4159
1.36474
1.31562
1.26845
1.22315
1.17962
1.13783
1.09762
1.05927
1.02422
5.47752
5.51598
5.56171
5.61595
5.68323
5.76851
5.87768
6.01725
6.19407
6.41522
6.68673
7.01307
7.39729
7.83984
8.33812
8.88657
9.47706
10.0997
10.7436
11.3982
12.0536
12.7013
13.3337
13.9461
14.5352
15.0978
15.6317
16.1356
16.6085
17.0499
17.4588
17.8353
18.1796
18.4921
18.7736
19.0249
19.2467
19.4392
19.6027
19.7367
19.8402
19.9119
19.9497
19.9515
19.9156
19.8401
19.7247
19.5681
19.3701
19.1331
18.8587
18.5491
18.208
17.8386
17.4449
17.0307
16.5994
16.1545
15.699
15.236
14.7685
14.2995
13.8317
13.3672
12.9077
12.4544
12.0083
11.5702
11.141
10.7216
10.313
9.91581
9.53113
9.1585
8.79808
8.44999
8.11415
7.79034
7.47842
7.17819
6.88946
6.61199
6.34549
6.08966
5.84414
5.60859
5.38266
5.166
4.95826
4.75913
4.56829
4.38542
4.21023
4.0424
3.88164
3.72768
3.58022
3.43901
3.30377
3.17426
3.05023
2.93144
2.81768
2.70872
2.60434
2.50435
2.40854
2.31675
2.22877
2.14444
2.06361
1.98611
1.9118
1.84053
1.77218
1.70662
1.64372
1.58338
1.52547
1.4699
1.41656
1.36536
1.3162
1.26899
1.22365
1.18009
1.13826
1.09803
1.05966
1.02459
6.06834
6.16328
6.27949
6.42412
6.60863
6.84265
7.1343
7.48866
7.91006
8.40175
8.95658
9.56139
10.2045
10.8726
11.5513
12.2275
12.8902
13.5313
14.1452
14.7294
15.2817
15.8006
16.2875
16.7437
17.1705
17.5687
17.9391
18.2824
18.5994
18.8903
19.1546
19.3931
19.6066
19.7957
19.961
20.1037
20.2242
20.3224
20.3985
20.4521
20.4818
20.4863
20.4634
20.4107
20.3263
20.2082
20.0554
19.8665
19.6409
19.3799
19.0845
18.7566
18.3992
18.0151
17.6081
17.1815
16.7388
16.2832
15.8177
15.3453
14.869
14.3918
13.9162
13.4445
12.9784
12.5188
12.067
11.6238
11.1899
10.7663
10.3537
9.95301
9.56516
9.18963
8.8263
8.4757
8.13757
7.81169
7.49788
7.19594
6.90565
6.62675
6.35895
6.10193
5.85534
5.61881
5.39199
5.17452
4.96607
4.76628
4.57484
4.39144
4.21575
4.04748
3.88632
3.73198
3.58419
3.44267
3.30715
3.17738
3.05311
2.93411
2.82015
2.71101
2.60646
2.50632
2.41037
2.31845
2.23035
2.14591
2.06498
1.98739
1.91299
1.84165
1.77323
1.7076
1.64464
1.58423
1.52627
1.47065
1.41727
1.36602
1.31681
1.26956
1.22419
1.18059
1.13873
1.09847
1.06008
1.02499
6.82211
7.12669
7.47703
7.8911
8.38451
8.95922
9.60535
10.3036
11.0343
11.7779
12.5124
13.22
13.8891
14.5134
15.091
15.6232
16.1135
16.5655
16.9832
17.3724
17.7325
18.0627
18.3696
18.6559
18.9228
19.171
19.4009
19.6127
19.8076
19.9841
20.1406
20.2789
20.3996
20.5028
20.5887
20.6584
20.7118
20.7482
20.7679
20.7704
20.7542
20.7178
20.6589
20.575
20.4642
20.3243
20.1539
19.9515
19.716
19.4478
19.1476
18.8168
18.4575
18.0724
17.6647
17.2377
16.7944
16.3379
15.8713
15.3976
14.9198
14.4408
13.9632
13.4893
13.0208
12.5589
12.1048
11.6593
11.2232
10.7976
10.3829
9.98048
9.59071
9.21334
8.84828
8.49606
8.15643
7.82913
7.51401
7.21084
6.91941
6.63945
6.37066
6.11272
5.86527
5.62796
5.40042
5.18229
4.97322
4.77289
4.58094
4.39707
4.22096
4.0523
3.89078
3.73612
3.58802
3.44622
3.31044
3.18044
3.05595
2.93675
2.8226
2.71329
2.60858
2.50829
2.41221
2.32016
2.23195
2.14741
2.06638
1.9887
1.91422
1.8428
1.77431
1.70861
1.64559
1.58513
1.52711
1.47144
1.418
1.36671
1.31746
1.27017
1.22475
1.18112
1.13923
1.09893
1.06053
1.02542
7.69878
8.43921
9.2571
10.1414
11.0709
12.001
12.8862
13.695
14.4168
15.0473
15.5974
16.0836
16.5147
16.9002
17.2478
17.5654
17.859
18.1322
18.3875
18.6263
18.8494
19.0592
19.2566
19.4423
19.6168
19.7802
19.9321
20.0722
20.2021
20.3177
20.4167
20.5029
20.5762
20.636
20.6824
20.7169
20.7381
20.7447
20.7383
20.718
20.6821
20.6295
20.5577
20.4637
20.3462
20.203
20.0326
19.8331
19.6029
19.3423
19.0513
18.7308
18.3826
18.0086
17.6117
17.1949
16.7611
16.3133
15.8543
15.3873
14.9152
14.4409
13.9672
13.4963
13.0301
12.57
12.1172
11.6727
11.2374
10.8122
10.3977
9.99553
9.60551
9.22752
8.86208
8.50936
8.16917
7.84129
7.52557
7.2218
6.92977
6.64921
6.37983
6.12132
5.87332
5.63548
5.40744
5.18885
4.97935
4.77861
4.58628
4.40206
4.22561
4.05664
3.89483
3.7399
3.59155
3.44951
3.31352
3.18331
3.05864
2.93926
2.82495
2.71548
2.61064
2.51021
2.41401
2.32184
2.23353
2.14889
2.06777
1.99
1.91544
1.84395
1.77539
1.70963
1.64655
1.58603
1.52796
1.47224
1.41876
1.36742
1.31813
1.27079
1.22534
1.18167
1.13975
1.09942
1.061
1.02587
2.58479
4.77259
7.06891
9.09878
10.7635
12.0779
13.1092
13.918
14.5523
15.0806
15.5442
15.9623
16.3431
16.6927
17.0163
17.3181
17.5998
17.862
18.106
18.3299
18.5397
18.7414
18.9306
19.1078
19.2739
19.4289
19.5727
19.705
19.825
19.9321
20.0269
20.1092
20.1786
20.235
20.2787
20.3122
20.3325
20.3383
20.333
20.3151
20.2831
20.2366
20.172
20.0865
19.9799
19.8499
19.6951
19.5131
19.3021
19.0622
18.793
18.4953
18.1699
17.8183
17.4431
17.0469
16.6325
16.2026
15.7601
15.3079
14.8489
14.3862
13.9226
13.4604
13.0017
12.5478
12.1005
11.6605
11.2291
10.8072
10.3957
9.99577
9.6073
9.23049
8.86614
8.51421
8.17458
7.84711
7.53165
7.22803
6.93604
6.65545
6.38597
6.1273
5.87912
5.64107
5.41282
5.19399
4.98426
4.78328
4.59073
4.40628
4.22962
4.06044
3.89843
3.7433
3.59476
3.45254
3.31638
3.18601
3.06118
2.94166
2.82721
2.71761
2.61264
2.5121
2.41578
2.32351
2.2351
2.15037
2.06917
1.99132
1.91669
1.84513
1.7765
1.71068
1.64754
1.58697
1.52885
1.47308
1.41955
1.36816
1.31883
1.27146
1.22596
1.18226
1.1403
1.09994
1.06151
1.02636
0.0758362
0.304869
0.806329
1.62988
2.76974
4.15683
5.6688
7.18662
8.61101
9.8762
10.9763
11.9298
12.7598
13.4878
14.1337
14.7014
15.1992
15.6443
16.0456
16.4095
16.7441
17.0539
17.3393
17.6031
17.847
18.0714
18.278
18.4674
18.6371
18.7912
18.933
19.0582
19.1667
19.2594
19.3372
19.4009
19.4508
19.488
19.5124
19.523
19.5188
19.5005
19.4637
19.406
19.3285
19.229
19.1063
18.9574
18.7799
18.5748
18.3411
18.0795
17.7899
17.4731
17.1317
16.7679
16.3841
15.9829
15.567
15.1392
14.7024
14.2597
13.8138
13.3673
12.9224
12.4806
12.0438
11.6131
11.19
10.7751
10.3701
9.97529
9.5907
9.21757
8.85632
8.50696
8.16947
7.84378
7.52979
7.22736
6.93635
6.65652
6.38764
6.12944
5.8816
5.64381
5.41573
5.19702
4.98736
4.78641
4.59386
4.40938
4.23267
4.06342
3.90133
3.74612
3.59749
3.45517
3.31891
3.18843
3.0635
2.94388
2.82932
2.71962
2.61456
2.51392
2.41752
2.32516
2.23667
2.15186
2.07058
1.99267
1.91797
1.84634
1.77766
1.71178
1.64859
1.58796
1.52979
1.47397
1.42039
1.36896
1.31959
1.27217
1.22664
1.1829
1.14091
1.10052
1.06207
1.02689
0.00228047
0.00599303
0.0221173
0.0730272
0.200765
0.463818
0.917603
1.5913
2.4771
3.52767
4.66934
5.83456
6.97208
8.05039
9.0553
9.98353
10.835
11.6093
12.3101
12.9455
13.5254
14.054
14.5337
14.967
15.362
15.7236
16.056
16.3613
16.6394
16.8934
17.125
17.3339
17.5208
17.6868
17.8335
17.9602
18.0711
18.1688
18.2496
18.3135
18.3605
18.39
18.4007
18.3924
18.3634
18.3118
18.2377
18.137
18.0076
17.8516
17.6674
17.4556
17.2149
16.9455
16.6505
16.3314
15.9903
15.6294
15.2513
14.8586
14.4542
14.041
13.6218
13.1993
12.7759
12.3531
11.9334
11.5181
11.1083
10.7058
10.3113
9.92505
9.54801
9.18171
8.82629
8.48194
8.14875
7.82675
7.51591
7.21618
6.92745
6.64955
6.3823
6.12545
5.87874
5.64189
5.41459
5.19653
4.9874
4.78688
4.59468
4.41048
4.23399
4.06491
3.90295
3.74783
3.59926
3.45699
3.32074
3.19026
3.06532
2.94567
2.83108
2.72134
2.61623
2.51554
2.41909
2.32668
2.23813
2.15327
2.07193
1.99397
1.91922
1.84754
1.77881
1.71288
1.64964
1.58898
1.53076
1.4749
1.42128
1.36981
1.32039
1.27294
1.22737
1.18359
1.14157
1.10115
1.06268
1.02748
0.00157532
0.00140778
0.00141894
0.00200351
0.00447816
0.0130014
0.038504
0.103265
0.242113
0.495965
0.898168
1.4628
2.17848
3.01228
3.91996
4.86338
5.80916
6.73185
7.61759
8.45728
9.24681
9.9861
10.6772
11.3227
11.9204
12.4722
12.9825
13.4533
13.8861
14.28
14.6382
14.9652
15.2633
15.5338
15.7797
16.0013
16.2012
16.381
16.5402
16.6793
16.7985
16.8957
16.9735
17.0329
17.0692
17.0815
17.0689
17.03
16.9648
16.872
16.7505
16.6013
16.4219
16.2122
15.9759
15.7138
15.4274
15.1187
14.7899
14.4436
14.0824
13.7091
13.3266
12.9375
12.5444
12.1488
11.7537
11.3612
10.9713
10.5863
10.2071
9.83429
9.46962
9.11411
8.76808
8.43192
8.10588
7.79011
7.4847
7.18968
6.90503
6.63066
6.36645
6.11221
5.86775
5.63283
5.40717
5.19052
4.9826
4.78311
4.59178
4.40833
4.23246
4.06391
3.90239
3.74764
3.59938
3.45735
3.3213
3.19099
3.06618
2.94663
2.83212
2.72243
2.61736
2.5167
2.42026
2.32786
2.2393
2.15444
2.07309
1.9951
1.92033
1.84863
1.77987
1.71392
1.65065
1.58995
1.5317
1.47581
1.42215
1.37065
1.3212
1.27372
1.22812
1.1843
1.14226
1.10181
1.06333
1.02812
0.00155955
0.0013588
0.00119415
0.00106386
0.000977197
0.000982215
0.00125009
0.00234134
0.00601413
0.017177
0.0470229
0.115647
0.251155
0.483186
0.83387
1.31097
1.9045
2.59119
3.34289
4.12972
4.92592
5.71793
6.49381
7.24511
7.96618
8.653
9.30454
9.91853
10.4948
11.038
11.5447
12.0148
12.4496
12.8506
13.2211
13.5583
13.8657
14.1465
14.4027
14.6352
14.844
15.0283
15.19
15.3293
15.4439
15.5333
15.5951
15.6312
15.6425
15.6246
15.5772
15.4998
15.392
15.2551
15.0894
14.8958
14.6755
14.4302
14.1621
13.8732
13.5661
13.2435
12.9079
12.5622
12.2088
11.8503
11.4886
11.1259
10.7631
10.4017
10.0441
9.69109
9.34419
9.00429
8.67205
8.34807
8.03279
7.7265
7.42945
7.14178
6.86358
6.59486
6.33558
6.08565
5.84495
5.61329
5.39049
5.17631
4.97054
4.77292
4.58322
4.40116
4.22651
4.05901
3.89839
3.74441
3.59681
3.45535
3.31979
3.1899
3.06544
2.94618
2.83192
2.72245
2.61755
2.51703
2.42071
2.3284
2.23993
2.15512
2.07382
1.99587
1.92113
1.84945
1.7807
1.71475
1.65149
1.59078
1.53253
1.47662
1.42296
1.37143
1.32196
1.27446
1.22884
1.185
1.14294
1.10247
1.06399
1.02877
0.00155516
0.00135537
0.0011912
0.00105542
0.000942369
0.000847967
0.000770442
0.000713312
0.000695022
0.000779818
0.00117563
0.0025381
0.00682454
0.019052
0.0496768
0.116015
0.240773
0.446821
0.750358
1.15605
1.65569
2.23286
2.86563
3.53249
4.21665
4.90599
5.58861
6.25603
6.90398
7.52971
8.1296
8.7013
9.2426
9.75376
10.2358
10.69
11.1146
11.5104
11.8785
12.2188
12.5296
12.8117
13.0675
13.2975
13.5013
13.6783
13.827
13.9486
14.0432
14.1084
14.1436
14.1468
14.1203
14.0656
13.98
13.8643
13.7198
13.5481
13.3507
13.1296
12.887
12.6252
12.3469
12.0546
11.7507
11.4388
11.1192
10.7941
10.4662
10.1369
9.8084
9.48189
9.1588
8.8402
8.52699
8.22
7.91987
7.62708
7.34202
7.065
6.79624
6.53588
6.28398
6.04057
5.80561
5.579
5.36064
5.15038
4.94804
4.75344
4.56637
4.38664
4.21402
4.04828
3.88922
3.73659
3.59018
3.44974
3.31508
3.18596
3.06217
2.9435
2.82975
2.7207
2.61618
2.51599
2.41994
2.32787
2.2396
2.15497
2.07382
1.99599
1.92136
1.84977
1.78109
1.71521
1.65199
1.59133
1.5331
1.47722
1.42357
1.37206
1.32259
1.27509
1.22946
1.18562
1.14356
1.10308
1.06461
1.0294
0.00155334
0.00135398
0.00119112
0.00105646
0.000944015
0.000849179
0.000768602
0.000699628
0.000640274
0.000589559
0.000548313
0.000522406
0.000533395
0.000650395
0.00109021
0.00252382
0.00687344
0.018819
0.0476125
0.107957
0.218545
0.39757
0.65767
1.00255
1.42629
1.91662
2.45659
3.02975
3.62158
4.22122
4.82154
5.41488
5.99506
6.55978
7.10519
7.62955
8.13241
8.61279
9.06846
9.49863
9.90541
10.2877
10.6436
10.9723
11.2737
11.5441
11.7848
11.9972
12.181
12.3352
12.459
12.5511
12.613
12.6448
12.6449
12.614
12.5529
12.4625
12.3443
12.1997
12.0306
11.8391
11.6274
11.3979
11.153
10.8956
10.627
10.3494
10.0653
9.77645
9.48487
9.19205
8.89954
8.60862
8.32042
8.03598
7.75614
7.48158
7.21288
6.95051
6.69485
6.44618
6.20471
5.97057
5.74386
5.52458
5.31273
5.10823
4.911
4.72093
4.53787
4.36167
4.19218
4.02921
3.87258
3.7221
3.57757
3.43881
3.30561
3.17778
3.05512
2.93744
2.82455
2.71627
2.61242
2.51281
2.41727
2.32565
2.23777
2.15347
2.07262
1.99505
1.92064
1.84924
1.78074
1.715
1.65191
1.59135
1.53322
1.47741
1.42382
1.37237
1.32295
1.27548
1.22988
1.18607
1.14402
1.10356
1.06513
1.02994
0.00155254
0.00135355
0.00119159
0.00105778
0.000945921
0.000851534
0.00077114
0.000702042
0.000642215
0.000590076
0.000544345
0.000504175
0.000468797
0.000438288
0.000414136
0.000402441
0.000424069
0.000543715
0.000962511
0.00229767
0.00627969
0.0169906
0.0422812
0.0944748
0.189007
0.341067
0.561373
0.853651
1.21317
1.62996
2.09224
2.58611
3.10032
3.62551
4.15376
4.68077
5.20206
5.71285
6.20976
6.69138
7.15672
7.60298
8.029
8.43346
8.81401
9.17151
9.5038
9.80917
10.0862
10.3321
10.5462
10.7293
10.8819
11.0032
11.0927
11.1505
11.1772
11.1735
11.1402
11.0786
10.9899
10.876
10.7387
10.5802
10.4026
10.2084
9.99935
9.77779
9.54586
9.30548
9.05863
8.80699
8.55224
8.29588
8.0392
7.78345
7.52966
7.27871
7.03137
6.78829
6.55002
6.317
6.08959
5.86808
5.65268
5.44354
5.24075
5.04435
4.85435
4.67073
4.49342
4.32235
4.15741
3.9985
3.84548
3.6982
3.55652
3.42028
3.28932
3.16347
3.04257
2.92644
2.81493
2.70787
2.60509
2.50644
2.41174
2.32086
2.23363
2.14992
2.06957
1.99246
1.91844
1.8474
1.7792
1.71373
1.65087
1.59053
1.53258
1.47693
1.42348
1.37214
1.32283
1.27544
1.22993
1.18618
1.14419
1.10379
1.06543
1.03028
0.00155214
0.00135336
0.00119183
0.00105855
0.000947164
0.000853102
0.000772871
0.000703865
0.000644072
0.000591926
0.000546197
0.00050579
0.000469879
0.000437897
0.000409193
0.000383474
0.000360548
0.000340518
0.000324967
0.000319488
0.000341691
0.000446039
0.000801131
0.00192308
0.00524188
0.0141099
0.0349536
0.0778601
0.155647
0.281235
0.464387
0.708566
1.01184
1.3665
1.76228
2.18954
2.63834
3.1009
3.57038
4.04138
4.51002
4.97229
5.42585
5.86766
6.29364
6.70328
7.09494
7.46573
7.81362
8.13885
8.43922
8.71177
8.95534
9.16635
9.34474
9.49175
9.60775
9.69254
9.7467
9.77114
9.76694
9.73535
9.6779
9.59636
9.49253
9.36862
9.22646
9.06822
8.89587
8.71135
8.51663
8.31349
8.1037
7.88885
7.67043
7.4498
7.2282
7.00667
6.78617
6.56753
6.35147
6.13861
5.92946
5.72447
5.52399
5.32831
5.13765
4.95217
4.77199
4.59719
4.42781
4.26384
4.10528
3.95207
3.80415
3.66144
3.52384
3.39125
3.26354
3.1406
3.02229
2.90848
2.79903
2.6938
2.59266
2.49545
2.40206
2.31232
2.22612
2.14332
2.06379
1.9874
1.91402
1.84355
1.77586
1.71084
1.64838
1.58839
1.53076
1.47539
1.42218
1.37106
1.32194
1.27472
1.22936
1.18574
1.14388
1.10358
1.06534
1.03029
0.00155188
0.00135323
0.00119207
0.0010592
0.00094821
0.000854416
0.000774397
0.000705547
0.000645843
0.000593728
0.000547912
0.000507385
0.000471399
0.000439253
0.000410418
0.000384498
0.000361017
0.00033969
0.00032036
0.000302798
0.000286869
0.000272834
0.000261982
0.000258649
0.000276293
0.000356294
0.000626439
0.00147675
0.0039935
0.0107467
0.0267677
0.0600797
0.121264
0.221612
0.370204
0.571731
0.825661
1.12737
1.46857
1.83966
2.2329
2.64175
3.06003
3.4824
3.90401
4.32146
4.73144
5.13057
5.51688
5.88784
6.24101
6.57386
6.88406
7.17135
7.43301
7.66652
7.87069
8.04207
8.18232
8.29268
8.37381
8.42609
8.45078
8.44934
8.42326
8.37434
8.3042
8.2148
8.10795
7.98551
7.84937
7.70129
7.54304
7.37628
7.20258
7.02343
6.84017
6.65401
6.46605
6.2773
6.08863
5.90082
5.71455
5.53041
5.34892
5.17049
4.99549
4.82422
4.65691
4.49375
4.33489
4.18042
4.03044
3.88496
3.744
3.60756
3.4756
3.34808
3.22493
3.10608
2.99144
2.88092
2.77443
2.67185
2.57308
2.47801
2.38651
2.29848
2.21381
2.13238
2.05407
1.97877
1.90638
1.83678
1.76988
1.70556
1.64373
1.5843
1.52717
1.47224
1.41944
1.36868
1.31987
1.27294
1.22783
1.18444
1.14278
1.10267
1.06463
1.02974
0.00155176
0.00135309
0.00119202
0.00105934
0.000948616
0.000855124
0.000775363
0.000706718
0.000647159
0.000595118
0.000549332
0.000508827
0.000472818
0.000440631
0.000411757
0.000385707
0.000362115
0.000340739
0.000321285
0.000303458
0.000287086
0.000272047
0.000258259
0.000245595
0.000233979
0.000223633
0.000215422
0.00021232
0.00022367
0.000277712
0.000461197
0.00103977
0.00276558
0.00747789
0.0189118
0.0433367
0.0894808
0.167207
0.285351
0.449598
0.660936
0.916285
1.2092
1.53206
1.87774
2.2397
2.61096
2.98674
3.36375
3.73767
4.10558
4.46342
4.80795
5.13753
5.44927
5.7405
6.0091
6.2553
6.4759
6.66907
6.83378
6.96758
7.07308
7.15168
7.2043
7.23205
7.23636
7.21895
7.18141
7.12538
7.05257
6.96466
6.86335
6.75028
6.62702
6.49508
6.3559
6.21077
6.06091
5.90745
5.7514
5.59368
5.4351
5.27642
5.11828
4.96124
4.80581
4.6524
4.50139
4.35309
4.20775
4.06558
3.92675
3.79141
3.65964
3.53152
3.4071
3.28639
3.1694
3.05612
2.94651
2.84053
2.73812
2.63924
2.54379
2.45171
2.36292
2.27732
2.19484
2.11537
2.03883
1.96513
1.89418
1.82587
1.76013
1.69686
1.63597
1.57738
1.52101
1.46677
1.41458
1.36437
1.31605
1.26957
1.22486
1.18183
1.14051
1.1007
1.06296
1.02832
0.00155168
0.00135313
0.00119232
0.00105995
0.000949469
0.00085617
0.000776555
0.000707999
0.000648493
0.000596458
0.000550669
0.000510145
0.000474097
0.000441877
0.000412935
0.000386823
0.000363203
0.000341755
0.000322168
0.000304241
0.000287811
0.000272736
0.000258857
0.000246007
0.000234082
0.000223004
0.000212719
0.000203209
0.000194444
0.000186519
0.000179953
0.000176571
0.000182096
0.000213938
0.000325363
0.000681054
0.00176358
0.00480667
0.0124588
0.0294718
0.0628625
0.121232
0.213041
0.34443
0.518053
0.732701
0.9828
1.26213
1.5636
1.88099
2.20921
2.54269
2.87749
3.20923
3.53396
3.84876
4.15049
4.43746
4.70684
4.95603
5.18343
5.38923
5.57048
5.7263
5.85566
5.95812
6.036
6.09086
6.12376
6.13591
6.12887
6.10419
6.0634
6.008
5.9395
5.85937
5.76903
5.66981
5.563
5.44978
5.33126
5.20845
5.0823
4.95366
4.8233
4.69191
4.56012
4.42848
4.29747
4.16752
4.039
3.91223
3.7875
3.66502
3.545
3.42759
3.31292
3.2011
3.09218
2.98624
2.8833
2.78338
2.68646
2.59256
2.50162
2.41363
2.32854
2.2463
2.16685
2.09013
2.01607
1.94462
1.87569
1.80923
1.74514
1.68337
1.62384
1.56648
1.51121
1.45797
1.40669
1.3573
1.30972
1.26391
1.2198
1.17732
1.13649
1.09715
1.05985
1.02559
0.00155162
0.0013531
0.00119235
0.00106007
0.000949724
0.000856561
0.000777081
0.000708642
0.000649232
0.000597282
0.00055157
0.000511116
0.000475107
0.000442886
0.000413922
0.000387794
0.000364139
0.000342615
0.000322977
0.000305029
0.00028858
0.000273454
0.000259491
0.000246558
0.000234571
0.000223449
0.000213129
0.000203525
0.000194536
0.000186116
0.000178231
0.000170838
0.000163945
0.000157628
0.0001522
0.000148657
0.000150203
0.000166722
0.000228417
0.000429931
0.00105793
0.00289008
0.00771622
0.0189613
0.042078
0.0842947
0.153326
0.255852
0.395525
0.572409
0.783158
1.02228
1.28377
1.56086
1.84818
2.14026
2.43252
2.72177
3.00449
3.27726
3.53723
3.7826
4.01085
4.21998
4.4093
4.5785
4.72564
4.85042
4.95201
5.03086
5.0891
5.12814
5.14912
5.1532
5.14179
5.11629
5.07805
5.02832
4.96837
4.89939
4.82252
4.73883
4.64933
4.55494
4.45654
4.3549
4.25076
4.14475
4.0375
3.92951
3.82128
3.71321
3.6057
3.49907
3.39361
3.28957
3.18716
3.08656
2.98793
2.89138
2.79703
2.70495
2.61519
2.52781
2.44282
2.36025
2.28009
2.20234
2.12697
2.05397
1.98329
1.91491
1.84877
1.78484
1.72306
1.66338
1.60575
1.55011
1.49641
1.44459
1.3946
1.34637
1.29986
1.25501
1.21178
1.1701
1.13
1.09133
1.05468
1.02097
0.00155159
0.00135306
0.00119234
0.00106015
0.000949921
0.000856884
0.000777536
0.000709222
0.000649927
0.000598079
0.000552421
0.000511978
0.000475967
0.000443745
0.000414784
0.000388644
0.000364948
0.0003434
0.000323755
0.000305787
0.000289295
0.000274102
0.000260071
0.000247098
0.00023509
0.000223953
0.000213593
0.00020392
0.000194875
0.000186404
0.000178461
0.00017101
0.000164031
0.000157482
0.000151316
0.000145497
0.000140004
0.000134878
0.000130279
0.000126724
0.000125897
0.000133074
0.000164438
0.000270655
0.000609911
0.00163623
0.00447194
0.0114476
0.0265796
0.0556402
0.105485
0.182681
0.291837
0.434471
0.608934
0.810347
1.033
1.27081
1.51816
1.77006
2.02218
2.27097
2.51307
2.74548
2.9659
3.17261
3.36362
3.53749
3.69412
3.83298
3.95287
4.05374
4.13508
4.19753
4.24296
4.2727
4.2878
4.28927
4.27829
4.25606
4.2237
4.18223
4.13266
4.07596
4.01303
3.94471
3.87179
3.79501
3.71504
3.63248
3.54791
3.46185
3.37474
3.28702
3.19906
3.1112
3.02372
2.93689
2.85094
2.76608
2.68247
2.60025
2.51955
2.44047
2.36311
2.28751
2.21374
2.14184
2.07182
2.0037
1.93749
1.87319
1.81078
1.75025
1.69157
1.63473
1.57968
1.5264
1.47485
1.42499
1.37679
1.33019
1.28516
1.24167
1.19967
1.15912
1.12006
1.08234
1.0466
1.01367
0.00155158
0.0013531
0.00119245
0.00106035
0.000950201
0.000857247
0.000777964
0.000709712
0.000650458
0.000598643
0.000553045
0.000512662
0.000476688
0.000444484
0.00041553
0.000389394
0.000365704
0.000344156
0.000324492
0.000306485
0.000289944
0.000274716
0.000260666
0.000247679
0.000235647
0.000224467
0.000214052
0.000204332
0.000195244
0.00018674
0.000178774
0.000171312
0.000164307
0.000157708
0.000151474
0.000145583
0.000140017
0.000134755
0.000129777
0.000125055
0.000120587
0.000116388
0.000112541
0.000109277
0.000107402
0.000109531
0.000123761
0.000175314
0.000344298
0.00087349
0.0024118
0.00642613
0.0156819
0.0345196
0.0686163
0.124017
0.20583
0.316705
0.456269
0.621347
0.806895
1.00718
1.2166
1.43021
1.64391
1.8544
2.05873
2.25433
2.43938
2.61232
2.7716
2.91615
3.04609
3.16104
3.26016
3.3435
3.41094
3.46273
3.50058
3.52565
3.53894
3.5412
3.53341
3.51654
3.4915
3.45913
3.42023
3.37556
3.32583
3.27171
3.21384
3.15278
3.08906
3.02319
2.95559
2.88669
2.81684
2.74639
2.67564
2.60485
2.53427
2.4641
2.39453
2.32574
2.25785
2.19099
2.12526
2.06076
1.99755
1.93569
1.87523
1.8162
1.75864
1.70255
1.64795
1.59485
1.54323
1.49308
1.44441
1.39718
1.35139
1.307
1.264
1.22235
1.18205
1.14305
1.10542
1.06901
1.03452
1.00267
0.00155156
0.0013531
0.00119249
0.00106044