/*--------------------------------*- C++ -*----------------------------------*\
| =========                 |                                                 |
| \\      /  F ield         | OpenFOAM: The Open Source CFD Toolbox           |
|  \\    /   O peration     | Version:  1.7.x                                 |
|   \\  /    A nd           | Web:      www.OpenFOAM.com                      |
|    \\/     M anipulation  |                                                 |
\*---------------------------------------------------------------------------*/
FoamFile
{
    version     2.0;
    format      ascii;
    class       surfaceScalarField;
    location    "3900";
    object      phi;
}
// * * * * * * * * * * * * * * * * * * * * * * * * * * * * * * * * * * * * * //

dimensions      [1 0 -1 0 0 0 0];

internalField   nonuniform List<scalar> 
10748
(
2.79291e-07
1.82735e-10
2.79032e-07
2.59786e-10
2.78717e-07
3.14663e-10
2.78377e-07
3.40066e-10
2.78023e-07
3.53762e-10
2.7766e-07
3.62824e-10
2.77292e-07
3.68434e-10
2.76919e-07
3.7257e-10
2.76543e-07
3.76507e-10
2.76162e-07
3.8078e-10
2.75776e-07
3.85562e-10
2.75386e-07
3.90761e-10
2.74989e-07
3.96513e-10
2.74586e-07
4.02937e-10
2.74176e-07
4.10086e-10
2.73758e-07
4.17979e-10
2.73331e-07
4.26737e-10
2.72895e-07
4.36473e-10
2.72447e-07
4.47454e-10
2.71987e-07
4.6001e-10
2.71513e-07
4.74714e-10
2.71021e-07
4.92035e-10
2.70508e-07
5.12637e-10
2.6997e-07
5.37734e-10
2.69402e-07
5.68465e-10
2.68795e-07
6.06615e-10
2.68141e-07
6.5447e-10
2.67426e-07
7.14566e-10
2.66636e-07
7.90226e-10
2.65751e-07
8.85464e-10
2.64746e-07
1.00468e-09
2.63593e-07
1.15313e-09
2.62257e-07
1.33592e-09
2.607e-07
1.55713e-09
2.5888e-07
1.81936e-09
2.56758e-07
2.12196e-09
2.54298e-07
2.46008e-09
2.51474e-07
2.82425e-09
2.48273e-07
3.20054e-09
2.44701e-07
3.57227e-09
2.40778e-07
3.92274e-09
2.36541e-07
4.23752e-09
2.32035e-07
4.50602e-09
2.27313e-07
4.72226e-09
2.22428e-07
4.88457e-09
2.17433e-07
4.99467e-09
2.12376e-07
5.05706e-09
2.07299e-07
5.07754e-09
2.02237e-07
5.06197e-09
1.9722e-07
5.01638e-09
1.92274e-07
4.94677e-09
1.87415e-07
4.85845e-09
1.8266e-07
4.75554e-09
1.78018e-07
4.64173e-09
1.73497e-07
4.52048e-09
1.69103e-07
4.3942e-09
1.64839e-07
4.26468e-09
1.60705e-07
4.13371e-09
1.56702e-07
4.00244e-09
1.5283e-07
3.87207e-09
1.49087e-07
3.74344e-09
1.4547e-07
3.61709e-09
1.41976e-07
3.49371e-09
1.38603e-07
3.37344e-09
1.35346e-07
3.25668e-09
1.32203e-07
3.1432e-09
1.2917e-07
3.03318e-09
1.26243e-07
2.9269e-09
1.23419e-07
2.82413e-09
1.20694e-07
2.72506e-09
1.18064e-07
2.62976e-09
1.15526e-07
2.53818e-09
1.13075e-07
2.45014e-09
1.1071e-07
2.36554e-09
1.08426e-07
2.28428e-09
1.06219e-07
2.20624e-09
1.04088e-07
2.13129e-09
1.02029e-07
2.05929e-09
1.00039e-07
1.9902e-09
9.81148e-08
1.92385e-09
9.62546e-08
1.86014e-09
9.44556e-08
1.799e-09
9.27154e-08
1.74027e-09
9.10314e-08
1.68397e-09
8.94016e-08
1.62982e-09
8.78239e-08
1.57773e-09
8.62961e-08
1.52772e-09
8.48164e-08
1.47969e-09
8.33829e-08
1.4335e-09
8.19939e-08
1.38906e-09
8.06476e-08
1.34633e-09
7.93425e-08
1.3051e-09
7.80769e-08
1.26558e-09
7.68493e-08
1.22757e-09
7.56585e-08
1.19081e-09
7.4503e-08
1.15553e-09
7.33814e-08
1.1216e-09
7.22925e-08
1.0889e-09
7.12351e-08
1.05735e-09
7.02082e-08
1.02695e-09
6.92105e-08
9.97671e-10
6.82411e-08
9.69407e-10
6.72988e-08
9.42242e-10
6.63828e-08
9.16047e-10
6.5492e-08
8.90756e-10
6.46256e-08
8.66411e-10
6.37827e-08
8.42949e-10
6.29624e-08
8.20309e-10
6.21639e-08
7.98481e-10
6.13864e-08
7.77448e-10
6.06292e-08
7.57191e-10
5.98916e-08
7.37644e-10
5.91728e-08
7.18789e-10
5.84723e-08
7.00554e-10
5.77894e-08
6.82887e-10
5.71236e-08
6.65765e-10
5.64745e-08
6.4916e-10
5.58414e-08
6.33071e-10
5.5224e-08
6.17368e-10
5.46219e-08
6.02066e-10
5.40348e-08
5.87126e-10
5.34625e-08
5.72326e-10
5.29049e-08
5.5763e-10
5.23626e-08
5.42227e-10
5.18364e-08
5.26218e-10
5.13313e-08
5.05122e-10
5.08497e-08
4.81631e-10
5.04194e-08
4.30274e-10
5.00453e-08
3.74057e-10
1.8331e-10
8.35242e-07
6.03524e-10
8.34483e-07
1.01936e-09
8.33568e-07
1.22918e-09
8.32578e-07
1.33011e-09
8.31536e-07
1.39619e-09
8.30459e-07
1.43948e-09
8.29362e-07
1.465e-09
8.28251e-07
1.484e-09
8.27126e-07
1.50197e-09
8.25986e-07
1.52061e-09
8.2483e-07
1.54085e-09
8.23658e-07
1.5627e-09
8.22468e-07
1.58682e-09
8.21257e-07
1.61377e-09
8.20024e-07
1.64388e-09
8.18764e-07
1.67744e-09
8.17476e-07
1.71482e-09
8.16156e-07
1.75686e-09
8.14798e-07
1.80523e-09
8.13396e-07
1.86145e-09
8.11943e-07
1.92784e-09
8.10428e-07
2.00689e-09
8.08839e-07
2.10194e-09
8.07158e-07
2.21849e-09
8.05365e-07
2.36208e-09
8.03431e-07
2.54002e-09
8.01324e-07
2.76221e-09
7.98999e-07
3.03964e-09
7.96403e-07
3.38532e-09
7.93474e-07
3.81445e-09
7.90136e-07
4.34309e-09
7.86301e-07
4.98815e-09
7.81873e-07
5.76412e-09
7.7675e-07
6.67973e-09
7.70833e-07
7.73607e-09
7.64033e-07
8.92262e-09
7.56277e-07
1.0216e-08
7.47521e-07
1.15798e-08
7.37755e-07
1.29668e-08
7.27003e-07
1.43239e-08
7.15328e-07
1.55984e-08
7.02821e-07
1.67448e-08
6.89597e-07
1.77292e-08
6.75789e-07
1.85306e-08
6.61533e-07
1.91409e-08
6.46964e-07
1.95637e-08
6.32208e-07
1.98125e-08
6.17381e-07
1.99051e-08
6.02581e-07
1.98618e-08
5.87894e-07
1.97034e-08
5.7339e-07
1.9451e-08
5.59124e-07
1.91245e-08
5.4514e-07
1.87392e-08
5.31472e-07
1.83094e-08
5.18144e-07
1.78484e-08
5.05173e-07
1.73654e-08
4.9257e-07
1.68674e-08
4.80342e-07
1.63619e-08
4.68491e-07
1.58536e-08
4.57016e-07
1.53472e-08
4.45913e-07
1.48462e-08
4.35177e-07
1.43531e-08
4.248e-07
1.38705e-08
4.14774e-07
1.33994e-08
4.0509e-07
1.29411e-08
3.95738e-07
1.24952e-08
3.86709e-07
1.20623e-08
3.77992e-07
1.16436e-08
3.69578e-07
1.12384e-08
3.61456e-07
1.08474e-08
3.53614e-07
1.04708e-08
3.46044e-07
1.01087e-08
3.38734e-07
9.76035e-09
3.31674e-07
9.42544e-09
3.24855e-07
9.10354e-09
3.18267e-07
8.79416e-09
3.11901e-07
8.49692e-09
3.05749e-07
8.21125e-09
2.99802e-07
7.93698e-09
2.94053e-07
7.6735e-09
2.88492e-07
7.42042e-09
2.83114e-07
7.17743e-09
2.7791e-07
6.94397e-09
2.72874e-07
6.72005e-09
2.67999e-07
6.50467e-09
2.6328e-07
6.29744e-09
2.58709e-07
6.09837e-09
2.54281e-07
5.90716e-09
2.49992e-07
5.72326e-09
2.45834e-07
5.54628e-09
2.41805e-07
5.37605e-09
2.37898e-07
5.21187e-09
2.34109e-07
5.05439e-09
2.30434e-07
4.90284e-09
2.26868e-07
4.75636e-09
2.23408e-07
4.61573e-09
2.20049e-07
4.48043e-09
2.16788e-07
4.35003e-09
2.13621e-07
4.2242e-09
2.10545e-07
4.10291e-09
2.07557e-07
3.98614e-09
2.04653e-07
3.87342e-09
2.0183e-07
3.76498e-09
1.99086e-07
3.66046e-09
1.96417e-07
3.55956e-09
1.93821e-07
3.46237e-09
1.91295e-07
3.36872e-09
1.88837e-07
3.27833e-09
1.86444e-07
3.1912e-09
1.84115e-07
3.10727e-09
1.81845e-07
3.02637e-09
1.79635e-07
2.94828e-09
1.77481e-07
2.87303e-09
1.75381e-07
2.80021e-09
1.73334e-07
2.72965e-09
1.71339e-07
2.6613e-09
1.69393e-07
2.59494e-09
1.67495e-07
2.53066e-09
1.65645e-07
2.46795e-09
1.6384e-07
2.40686e-09
1.6208e-07
2.34714e-09
1.60364e-07
2.28802e-09
1.58692e-07
2.22935e-09
1.57067e-07
2.16782e-09
1.55489e-07
2.10379e-09
1.53975e-07
2.0196e-09
1.52531e-07
1.92537e-09
1.5124e-07
1.72099e-09
1.5012e-07
1.49409e-09
7.34885e-10
1.38281e-06
1.35799e-09
1.3815e-06
2.32506e-09
1.37996e-06
2.76711e-09
1.37831e-06
2.97886e-09
1.37658e-06
3.13098e-09
1.37479e-06
3.23047e-09
1.37296e-06
3.28869e-09
1.37112e-06
3.33354e-09
1.36924e-06
3.3768e-09
1.36734e-06
3.42101e-09
1.36541e-06
3.4685e-09
1.36345e-06
3.52072e-09
1.36146e-06
3.57916e-09
1.35943e-06
3.64549e-09
1.35735e-06
3.72053e-09
1.35523e-06
3.80523e-09
1.35304e-06
3.90185e-09
1.35078e-06
4.01347e-09
1.34844e-06
4.14488e-09
1.346e-06
4.30141e-09
1.34344e-06
4.4893e-09
1.34073e-06
4.71648e-09
1.33784e-06
4.99325e-09
1.33473e-06
5.33332e-09
1.33134e-06
5.75235e-09
1.32761e-06
6.26887e-09
1.32346e-06
6.90561e-09
1.31882e-06
7.68731e-09
1.31356e-06
8.64011e-09
1.30758e-06
9.79032e-09
1.30077e-06
1.11611e-08
1.29298e-06
1.27712e-08
1.28412e-06
1.46286e-08
1.27407e-06
1.67263e-08
1.26276e-06
1.90437e-08
1.25014e-06
2.15433e-08
1.23619e-06
2.41729e-08
1.2209e-06
2.68675e-08
1.20431e-06
2.95536e-08
1.18648e-06
3.21537e-08
1.16749e-06
3.45896e-08
1.14744e-06
3.67923e-08
1.12647e-06
3.87072e-08
1.1047e-06
4.02949e-08
1.08231e-06
4.15342e-08
1.05945e-06
4.24241e-08
1.03628e-06
4.29793e-08
1.01296e-06
4.32257e-08
9.89627e-07
4.3196e-08
9.66404e-07
4.29264e-08
9.43399e-07
4.24551e-08
9.20703e-07
4.18205e-08
8.98389e-07
4.10533e-08
8.76517e-07
4.01822e-08
8.55129e-07
3.92359e-08
8.3426e-07
3.82342e-08
8.13935e-07
3.71923e-08
7.94171e-07
3.61263e-08
7.74977e-07
3.50479e-08
7.56356e-07
3.39675e-08
7.38309e-07
3.28938e-08
7.20829e-07
3.18327e-08
7.0391e-07
3.07901e-08
6.8754e-07
2.97694e-08
6.71707e-07
2.87734e-08
6.56401e-07
2.78018e-08
6.41606e-07
2.68568e-08
6.27309e-07
2.59402e-08
6.13496e-07
2.50518e-08
6.0015e-07
2.4193e-08
5.87257e-07
2.33646e-08
5.74799e-07
2.25669e-08
5.62761e-07
2.17982e-08
5.51128e-07
2.10585e-08
5.39884e-07
2.0347e-08
5.29016e-07
1.96622e-08
5.18509e-07
1.90037e-08
5.0835e-07
1.83702e-08
4.98526e-07
1.77615e-08
4.89023e-07
1.71766e-08
4.79829e-07
1.66143e-08
4.70932e-07
1.60738e-08
4.62322e-07
1.55543e-08
4.53986e-07
1.50558e-08
4.45915e-07
1.45762e-08
4.38098e-07
1.41144e-08
4.30526e-07
1.36706e-08
4.23189e-07
1.32441e-08
4.16078e-07
1.28337e-08
4.09186e-07
1.24387e-08
4.02504e-07
1.20585e-08
3.96023e-07
1.16919e-08
3.89738e-07
1.13401e-08
3.83639e-07
1.10012e-08
3.77722e-07
1.06738e-08
3.71978e-07
1.03593e-08
3.66402e-07
1.00566e-08
3.60987e-07
9.76479e-09
3.55728e-07
9.48331e-09
3.50619e-07
9.21174e-09
3.45655e-07
8.95031e-09
3.40831e-07
8.69801e-09
3.36141e-07
8.45503e-09
3.3158e-07
8.22087e-09
3.27145e-07
7.99478e-09
3.2283e-07
7.77702e-09
3.18632e-07
7.5671e-09
3.14546e-07
7.3645e-09
3.10568e-07
7.16919e-09
3.06694e-07
6.98103e-09
3.02921e-07
6.79957e-09
2.99245e-07
6.6244e-09
2.95662e-07
6.45561e-09
2.9217e-07
6.29225e-09
2.88766e-07
6.13399e-09
2.85447e-07
5.98062e-09
2.8221e-07
5.8317e-09
2.79053e-07
5.68745e-09
2.75974e-07
5.54676e-09
2.72971e-07
5.40971e-09
2.70043e-07
5.27558e-09
2.67188e-07
5.14278e-09
2.64406e-07
5.0112e-09
2.61701e-07
4.87308e-09
2.59076e-07
4.72917e-09
2.56555e-07
4.54018e-09
2.54152e-07
4.32818e-09
2.52004e-07
3.86959e-09
2.5014e-07
3.35771e-09
1.65402e-09
1.91588e-06
2.50538e-09
1.91396e-06
4.24707e-09
1.91176e-06
4.96656e-09
1.90943e-06
5.31315e-09
1.90698e-06
5.58119e-09
1.90446e-06
5.75339e-09
1.90189e-06
5.85405e-09
1.89929e-06
5.93498e-09
1.89665e-06
6.01413e-09
1.89398e-06
6.09602e-09
1.89126e-06
6.18622e-09
1.88849e-06
6.28881e-09
1.88566e-06
6.40675e-09
1.88277e-06
6.54369e-09
1.87978e-06
6.70322e-09
1.8767e-06
6.88909e-09
1.87349e-06
7.10788e-09
1.87014e-06
7.36927e-09
1.8666e-06
7.6845e-09
1.86283e-06
8.06638e-09
1.85879e-06
8.53161e-09
1.85441e-06
9.09934e-09
1.84961e-06
9.79304e-09
1.8443e-06
1.0639e-08
1.83839e-06
1.16662e-08
1.83175e-06
1.29081e-08
1.82426e-06
1.43983e-08
1.81578e-06
1.61677e-08
1.80617e-06
1.82407e-08
1.79533e-06
2.06328e-08
1.78315e-06
2.3347e-08
1.76954e-06
2.63739e-08
1.75448e-06
2.96875e-08
1.73797e-06
3.32458e-08
1.72001e-06
3.69974e-08
1.70067e-06
4.0883e-08
1.68001e-06
4.48389e-08
1.65808e-06
4.87949e-08
1.63495e-06
5.26777e-08
1.6107e-06
5.64124e-08
1.58537e-06
5.99186e-08
1.55904e-06
6.31196e-08
1.5318e-06
6.59496e-08
1.50374e-06
6.83519e-08
1.47499e-06
7.02873e-08
1.44567e-06
7.17387e-08
1.41594e-06
7.27095e-08
1.38595e-06
7.32215e-08
1.35583e-06
7.33078e-08
1.32575e-06
7.30113e-08
1.29582e-06
7.23823e-08
1.26617e-06
7.14745e-08
1.23689e-06
7.03334e-08
1.20807e-06
6.90028e-08
1.17978e-06
6.75284e-08
1.15207e-06
6.59438e-08
1.12498e-06
6.42748e-08
1.09856e-06
6.25479e-08
1.07282e-06
6.07849e-08
1.04779e-06
5.90051e-08
1.02346e-06
5.72245e-08
9.99835e-07
5.54542e-08
9.7692e-07
5.37054e-08
9.54703e-07
5.1986e-08
9.33176e-07
5.03006e-08
9.12327e-07
4.86509e-08
8.92142e-07
4.70414e-08
8.72607e-07
4.5475e-08
8.53707e-07
4.39525e-08
8.35422e-07
4.24773e-08
8.17736e-07
4.10512e-08
8.00628e-07
3.96747e-08
7.8408e-07
3.8346e-08
7.68073e-07
3.70656e-08
7.52588e-07
3.58319e-08
7.37607e-07
3.46429e-08
7.23113e-07
3.34978e-08
7.09089e-07
3.23947e-08
6.95517e-07
3.13337e-08
6.8238e-07
3.03134e-08
6.69663e-07
2.93311e-08
6.57351e-07
2.8386e-08
6.45428e-07
2.74774e-08
6.33879e-07
2.66041e-08
6.22692e-07
2.57638e-08
6.11852e-07
2.49544e-08
6.01347e-07
2.41755e-08
5.91164e-07
2.34266e-08
5.81292e-07
2.27056e-08
5.7172e-07
2.20113e-08
5.62436e-07
2.13426e-08
5.5343e-07
2.06979e-08
5.44691e-07
2.00787e-08
5.36211e-07
1.94816e-08
5.27979e-07
1.89051e-08
5.19988e-07
1.83509e-08
5.12228e-07
1.78169e-08
5.0469e-07
1.73022e-08
4.97368e-07
1.68057e-08
4.90253e-07
1.63265e-08
4.83338e-07
1.58651e-08
4.76617e-07
1.54196e-08
4.70081e-07
1.49903e-08
4.63726e-07
1.45766e-08
4.57543e-07
1.4177e-08
4.51528e-07
1.37922e-08
4.45674e-07
1.3421e-08
4.39976e-07
1.30628e-08
4.34428e-07
1.27174e-08
4.29024e-07
1.23845e-08
4.2376e-07
1.20635e-08
4.18631e-07
1.17535e-08
4.13632e-07
1.14546e-08
4.08759e-07
1.11653e-08
4.04008e-07
1.08854e-08
3.99375e-07
1.06138e-08
3.94856e-07
1.03501e-08
3.90449e-07
1.00947e-08
3.8615e-07
9.84542e-09
3.81957e-07
9.60266e-09
3.77868e-07
9.36492e-09
3.73881e-07
9.12951e-09
3.69996e-07
8.89655e-09
3.66217e-07
8.65174e-09
3.6255e-07
8.39638e-09
3.59029e-07
8.06133e-09
3.55672e-07
7.68507e-09
3.5267e-07
6.87156e-09
3.50066e-07
5.9615e-09
2.93898e-09
2.42766e-06
4.22529e-09
2.42499e-06
6.91482e-09
2.42207e-06
7.88585e-09
2.41901e-06
8.3728e-09
2.41582e-06
8.78031e-09
2.41254e-06
9.03351e-09
2.40921e-06
9.18269e-09
2.40583e-06
9.31058e-09
2.4024e-06
9.44182e-09
2.39892e-06
9.58364e-09
2.39536e-06
9.74697e-09
2.3917e-06
9.94086e-09
2.38794e-06
1.01733e-08
2.38403e-06
1.04536e-08
2.37994e-06
1.07915e-08
2.37563e-06
1.11989e-08
2.37104e-06
1.16928e-08
2.36612e-06
1.22959e-08
2.36077e-06
1.30319e-08
2.35491e-06
1.39276e-08
2.34842e-06
1.50154e-08
2.34119e-06
1.63297e-08
2.33308e-06
1.79063e-08
2.32394e-06
1.97786e-08
2.31363e-06
2.19781e-08
2.302e-06
2.45328e-08
2.28894e-06
2.74594e-08
2.27435e-06
3.07603e-08
2.25817e-06
3.44218e-08
2.24039e-06
3.84157e-08
2.22103e-06
4.27023e-08
2.20017e-06
4.72341e-08
2.1779e-06
5.19558e-08
2.15434e-06
5.68098e-08
2.1296e-06
6.17407e-08
2.10378e-06
6.66961e-08
2.07699e-06
7.16287e-08
2.0493e-06
7.64884e-08
2.02075e-06
8.12228e-08
1.99139e-06
8.57756e-08
1.96123e-06
9.00801e-08
1.93028e-06
9.40643e-08
1.89858e-06
9.76573e-08
1.86614e-06
1.0079e-07
1.83302e-06
1.03404e-07
1.7993e-06
1.05459e-07
1.76508e-06
1.06936e-07
1.73046e-06
1.07838e-07
1.69558e-06
1.08186e-07
1.66058e-06
1.08014e-07
1.62559e-06
1.07374e-07
1.59073e-06
1.06327e-07
1.55614e-06
1.04927e-07
1.52191e-06
1.0323e-07
1.48815e-06
1.01295e-07
1.45492e-06
9.91704e-08
1.4223e-06
9.6895e-08
1.39034e-06
9.45058e-08
1.35909e-06
9.20365e-08
1.32858e-06
8.95184e-08
1.29882e-06
8.69767e-08
1.26985e-06
8.443e-08
1.24166e-06
8.18969e-08
1.21425e-06
7.93915e-08
1.18763e-06
7.69217e-08
1.16179e-06
7.44935e-08
1.13672e-06
7.21144e-08
1.1124e-06
6.97887e-08
1.08883e-06
6.7521e-08
1.06599e-06
6.53167e-08
1.04387e-06
6.31791e-08
1.02243e-06
6.111e-08
1.00167e-06
5.91086e-08
9.81558e-07
5.71756e-08
9.62081e-07
5.53091e-08
9.43216e-07
5.35072e-08
9.24945e-07
5.17688e-08
9.07249e-07
5.00911e-08
8.90107e-07
4.84752e-08
8.73502e-07
4.69191e-08
8.57414e-07
4.54189e-08
8.41826e-07
4.39742e-08
8.2672e-07
4.25835e-08
8.12079e-07
4.12451e-08
7.97886e-07
3.99569e-08
7.84125e-07
3.87147e-08
7.70783e-07
3.7518e-08
7.57843e-07
3.63663e-08
7.45291e-07
3.52571e-08
7.33115e-07
3.41882e-08
7.213e-07
3.31576e-08
7.09833e-07
3.21644e-08
6.98703e-07
3.1209e-08
6.87898e-07
3.0287e-08
6.77405e-07
2.93972e-08
6.67215e-07
2.85411e-08
6.57317e-07
2.77152e-08
6.477e-07
2.6919e-08
6.38354e-07
2.61513e-08
6.29271e-07
2.54097e-08
6.20441e-07
2.46955e-08
6.11855e-07
2.40054e-08
6.03505e-07
2.334e-08
5.95383e-07
2.26987e-08
5.87481e-07
2.20793e-08
5.79791e-07
2.14826e-08
5.72305e-07
2.09067e-08
5.65017e-07
2.03508e-08
5.57919e-07
1.98149e-08
5.51006e-07
1.9298e-08
5.4427e-07
1.87996e-08
5.37705e-07
1.83182e-08
5.31306e-07
1.78534e-08
5.25068e-07
1.74039e-08
5.18984e-07
1.6969e-08
5.13051e-07
1.65468e-08
5.07264e-07
1.61371e-08
5.01619e-07
1.57398e-08
4.96112e-07
1.53522e-08
4.9074e-07
1.49746e-08
4.855e-07
1.46047e-08
4.80391e-07
1.42384e-08
4.75412e-07
1.38761e-08
4.70569e-07
1.34951e-08
4.65868e-07
1.30971e-08
4.61354e-07
1.25753e-08
4.5705e-07
1.1989e-08
4.53201e-07
1.07207e-08
4.49862e-07
9.30054e-09
4.58734e-09
2.90994e-06
6.6115e-09
2.90644e-06
1.04181e-08
2.90278e-06
1.15365e-08
2.89899e-06
1.21716e-08
2.89502e-06
1.27476e-08
2.89096e-06
1.30886e-08
2.88684e-06
1.33014e-08
2.88265e-06
1.35065e-08
2.87836e-06
1.37329e-08
2.87395e-06
1.39958e-08
2.86938e-06
1.43167e-08
2.8646e-06
1.47162e-08
2.85956e-06
1.5214e-08
2.85418e-06
1.58326e-08
2.84838e-06
1.65955e-08
2.84205e-06
1.7529e-08
2.83507e-06
1.86678e-08
2.82732e-06
2.00514e-08
2.81863e-06
2.17183e-08
2.80885e-06
2.37051e-08
2.79782e-06
2.60473e-08
2.78537e-06
2.87758e-08
2.77137e-06
3.19092e-08
2.7557e-06
3.54543e-08
2.73827e-06
3.94036e-08
2.71907e-06
4.37333e-08
2.69812e-06
4.84066e-08
2.67551e-06
5.33763e-08
2.65134e-06
5.85861e-08
2.62578e-06
6.39765e-08
2.59899e-06
6.9494e-08
2.57113e-06
7.50896e-08
2.54237e-06
8.07169e-08
2.51285e-06
8.63368e-08
2.48267e-06
9.19172e-08
2.45193e-06
9.74334e-08
2.4207e-06
1.02866e-07
2.38899e-06
1.0819e-07
2.35683e-06
1.13382e-07
2.32421e-06
1.18405e-07
2.29108e-06
1.2321e-07
2.25741e-06
1.27734e-07
2.22316e-06
1.31907e-07
2.1883e-06
1.35651e-07
2.15281e-06
1.38891e-07
2.11671e-06
1.41563e-07
2.08002e-06
1.4362e-07
2.04282e-06
1.45036e-07
2.0052e-06
1.45809e-07
1.96726e-06
1.45954e-07
1.92913e-06
1.45508e-07
1.89093e-06
1.44528e-07
1.85278e-06
1.4307e-07
1.81482e-06
1.41192e-07
1.77715e-06
1.38963e-07
1.73988e-06
1.36442e-07
1.7031e-06
1.3368e-07
1.66688e-06
1.30725e-07
1.63129e-06
1.27622e-07
1.59639e-06
1.24417e-07
1.56223e-06
1.21145e-07
1.52882e-06
1.17834e-07
1.49621e-06
1.14513e-07
1.46439e-06
1.11203e-07
1.4334e-06
1.07918e-07
1.40322e-06
1.04669e-07
1.37387e-06
1.01469e-07
1.34533e-06
9.83247e-08
1.31761e-06
9.52463e-08
1.29068e-06
9.22418e-08
1.26454e-06
8.93169e-08
1.23918e-06
8.64768e-08
1.21456e-06
8.3722e-08
1.19069e-06
8.10534e-08
1.16753e-06
7.84703e-08
1.14506e-06
7.59712e-08
1.12328e-06
7.35547e-08
1.10215e-06
7.1218e-08
1.08166e-06
6.89629e-08
1.06179e-06
6.67878e-08
1.04252e-06
6.46873e-08
1.02384e-06
6.26624e-08
1.00571e-06
6.07101e-08
9.88126e-07
5.88282e-08
9.71067e-07
5.70155e-08
9.54516e-07
5.52657e-08
9.38456e-07
5.35778e-08
9.22871e-07
5.19521e-08
9.07743e-07
5.03847e-08
8.93058e-07
4.88729e-08
8.78802e-07
4.74142e-08
8.64958e-07
4.60079e-08
8.51514e-07
4.46536e-08
8.38455e-07
4.33454e-08
8.25769e-07
4.20829e-08
8.13443e-07
4.08671e-08
8.01466e-07
3.9693e-08
7.89824e-07
3.85607e-08
7.78506e-07
3.7469e-08
7.67502e-07
3.64136e-08
7.56801e-07
3.53966e-08
7.46393e-07
3.44137e-08
7.36268e-07
3.3465e-08
7.26416e-07
3.25507e-08
7.16828e-07
3.16673e-08
7.07495e-07
3.08156e-08
6.98408e-07
2.99938e-08
6.89559e-07
2.92002e-08
6.80939e-07
2.84346e-08
6.72541e-07
2.76962e-08
6.64356e-07
2.6984e-08
6.56378e-07
2.62961e-08
6.48601e-07
2.56312e-08
6.41016e-07
2.49881e-08
6.33619e-07
2.43661e-08
6.26404e-07
2.37621e-08
6.19366e-07
2.31756e-08
6.12498e-07
2.26071e-08
6.05798e-07
2.20521e-08
5.99262e-07
2.15114e-08
5.92885e-07
2.09815e-08
5.86666e-07
2.04569e-08
5.80605e-07
1.99377e-08
5.74708e-07
1.93917e-08
5.68984e-07
1.88208e-08
5.63487e-07
1.80723e-08
5.58245e-07
1.72309e-08
5.53557e-07
1.54092e-08
5.49489e-07
1.33684e-08
6.59598e-09
3.35319e-06
1.01437e-08
3.34862e-06
1.49877e-08
3.34417e-06
1.59921e-08
3.33956e-06
1.67824e-08
3.33475e-06
1.75535e-08
3.32984e-06
1.80007e-08
3.3248e-06
1.83348e-08
3.3196e-06
1.87158e-08
3.31415e-06
1.91778e-08
3.30839e-06
1.97557e-08
3.30222e-06
2.04919e-08
3.29551e-06
2.14263e-08
3.28812e-06
2.26e-08
3.2799e-06
2.4055e-08
3.27066e-06
2.58287e-08
3.26024e-06
2.79569e-08
3.24842e-06
3.048e-08
3.23504e-06
3.34341e-08
3.21992e-06
3.68373e-08
3.20294e-06
4.06916e-08
3.184e-06
4.49863e-08
3.16308e-06
4.96914e-08
3.14023e-06
5.47633e-08
3.11553e-06
6.0152e-08
3.08913e-06
6.57976e-08
3.06124e-06
7.16323e-08
3.03205e-06
7.75943e-08
3.00179e-06
8.36307e-08
2.97069e-06
8.96938e-08
2.93892e-06
9.57432e-08
2.90666e-06
1.01751e-07
2.87405e-06
1.077e-07
2.84119e-06
1.13575e-07
2.80817e-06
1.19363e-07
2.77502e-06
1.25061e-07
2.74179e-06
1.30669e-07
2.70846e-06
1.36192e-07
2.67503e-06
1.41626e-07
2.64144e-06
1.46968e-07
2.60765e-06
1.52196e-07
2.57358e-06
1.57277e-07
2.53916e-06
1.62158e-07
2.50429e-06
1.6677e-07
2.46891e-06
1.71033e-07
2.43294e-06
1.74859e-07
2.39635e-06
1.78162e-07
2.3591e-06
1.8087e-07
2.32121e-06
1.82922e-07
2.28273e-06
1.84291e-07
2.24372e-06
1.84961e-07
2.20428e-06
1.84945e-07
2.16453e-06
1.84283e-07
2.12457e-06
1.83023e-07
2.08455e-06
1.81219e-07
2.04457e-06
1.78936e-07
2.00477e-06
1.76243e-07
1.96525e-06
1.73199e-07
1.92612e-06
1.69861e-07
1.88745e-06
1.66284e-07
1.84935e-06
1.62526e-07
1.81186e-06
1.58635e-07
1.77504e-06
1.54651e-07
1.73894e-06
1.50612e-07
1.70359e-06
1.4655e-07
1.66903e-06
1.42483e-07
1.63526e-06
1.38433e-07
1.60231e-06
1.34418e-07
1.57019e-06
1.3045e-07
1.53889e-06
1.26544e-07
1.50842e-06
1.22714e-07
1.47877e-06
1.18968e-07
1.44993e-06
1.15317e-07
1.42189e-06
1.11763e-07
1.39463e-06
1.08309e-07
1.36815e-06
1.04955e-07
1.34241e-06
1.01702e-07
1.31742e-06
9.85484e-08
1.29315e-06
9.5491e-08
1.26958e-06
9.25342e-08
1.24669e-06
8.96764e-08
1.22446e-06
8.69117e-08
1.20288e-06
8.42422e-08
1.18193e-06
8.1664e-08
1.16158e-06
7.91744e-08
1.14183e-06
7.67735e-08
1.12264e-06
7.44533e-08
1.104e-06
7.22118e-08
1.08591e-06
7.00506e-08
1.06833e-06
6.79647e-08
1.05125e-06
6.59504e-08
1.03466e-06
6.40054e-08
1.01854e-06
6.21288e-08
1.00287e-06
6.03194e-08
9.87646e-07
5.85702e-08
9.72848e-07
5.6881e-08
9.58461e-07
5.52533e-08
9.44474e-07
5.36799e-08
9.30874e-07
5.21614e-08
9.17646e-07
5.06971e-08
9.04779e-07
4.92805e-08
8.92261e-07
4.79143e-08
8.80081e-07
4.65937e-08
8.68228e-07
4.53182e-08
8.5669e-07
4.40882e-08
8.45458e-07
4.28994e-08
8.34521e-07
4.17522e-08
8.2387e-07
4.06455e-08
8.13493e-07
3.95765e-08
8.03384e-07
3.8544e-08
7.93532e-07
3.75487e-08
7.83927e-07
3.65882e-08
7.74564e-07
3.56598e-08
7.65433e-07
3.4762e-08
7.56527e-07
3.38936e-08
7.4784e-07
3.30538e-08
7.39364e-07
3.22377e-08
7.31094e-07
3.14454e-08
7.23024e-07
3.06771e-08
7.15149e-07
2.99269e-08
7.07465e-07
2.91956e-08
6.99967e-07
2.84794e-08
6.92654e-07
2.77698e-08
6.85525e-07
2.70669e-08
6.78589e-07
2.63277e-08
6.71855e-07
2.55547e-08
6.65387e-07
2.45405e-08
6.59218e-07
2.33997e-08
6.537e-07
2.09275e-08
6.48911e-07
1.81573e-08
8.96129e-09
3.74372e-06
1.5172e-08
3.73799e-06
2.07221e-08
3.73274e-06
2.12439e-08
3.72721e-06
2.23113e-08
3.72137e-06
2.33901e-08
3.71528e-06
2.40929e-08
3.70881e-06
2.48063e-08
3.7018e-06
2.57246e-08
3.69409e-06
2.6892e-08
3.68547e-06
2.83741e-08
3.67572e-06
3.02364e-08
3.66462e-06
3.25296e-08
3.65192e-06
3.52995e-08
3.6374e-06
3.85797e-08
3.62085e-06
4.23751e-08
3.60214e-06
4.667e-08
3.58117e-06
5.14432e-08
3.55795e-06
5.66554e-08
3.53255e-06
6.2242e-08
3.50511e-06
6.8127e-08
3.47586e-06
7.42341e-08
3.44507e-06
8.04846e-08
3.41302e-06
8.68092e-08
3.38001e-06
9.31633e-08
3.3463e-06
9.9508e-08
3.31213e-06
1.05802e-07
3.27771e-06
1.12019e-07
3.2432e-06
1.18144e-07
3.20872e-06
1.24166e-07
3.17439e-06
1.30077e-07
3.14026e-06
1.35879e-07
3.10638e-06
1.41586e-07
3.07275e-06
1.47204e-07
3.03937e-06
1.52742e-07
3.00622e-06
1.58213e-07
2.97326e-06
1.63628e-07
2.94044e-06
1.69006e-07
2.90771e-06
1.7436e-07
2.87498e-06
1.79695e-07
2.84218e-06
1.84999e-07
2.8092e-06
1.90251e-07
2.77596e-06
1.95406e-07
2.74233e-06
2.00399e-07
2.70821e-06
2.0515e-07
2.6735e-06
2.09564e-07
2.63813e-06
2.1354e-07
2.60201e-06
2.16983e-07
2.56513e-06
2.19804e-07
2.52748e-06
2.2194e-07
2.48909e-06
2.2335e-07
2.45003e-06
2.24012e-07
2.41037e-06
2.2394e-07
2.37023e-06
2.23165e-07
2.32972e-06
2.21726e-07
2.28898e-06
2.19681e-07
2.24812e-06
2.17099e-07
2.20728e-06
2.14041e-07
2.16657e-06
2.1057e-07
2.1261e-06
2.06749e-07
2.08598e-06
2.02645e-07
2.0463e-06
1.9832e-07
2.00713e-06
1.93823e-07
1.96853e-06
1.89206e-07
1.93057e-06
1.84509e-07
1.8933e-06
1.79758e-07
1.85674e-06
1.74987e-07
1.82094e-06
1.70219e-07
1.78592e-06
1.65476e-07
1.75169e-06
1.60776e-07
1.71826e-06
1.5614e-07
1.68564e-06
1.51585e-07
1.65384e-06
1.47124e-07
1.62284e-06
1.42763e-07
1.59264e-06
1.38506e-07
1.56323e-06
1.34361e-07
1.53461e-06
1.30327e-07
1.50675e-06
1.26404e-07
1.47965e-06
1.2259e-07
1.4533e-06
1.18892e-07
1.42766e-06
1.15309e-07
1.40274e-06
1.11837e-07
1.3785e-06
1.08476e-07
1.35494e-06
1.05225e-07
1.33204e-06
1.02079e-07
1.30977e-06
9.90405e-08
1.28812e-06
9.61006e-08
1.26708e-06
9.32555e-08
1.24662e-06
9.05088e-08
1.22673e-06
8.78542e-08
1.20739e-06
8.52882e-08
1.18859e-06
8.28078e-08
1.17031e-06
8.04117e-08
1.15253e-06
7.80988e-08
1.13524e-06
7.58608e-08
1.11842e-06
7.36981e-08
1.10206e-06
7.16122e-08
1.08615e-06
6.95943e-08
1.07067e-06
6.76449e-08
1.0556e-06
6.57639e-08
1.04094e-06
6.39434e-08
1.02666e-06
6.21858e-08
1.01277e-06
6.04866e-08
9.99245e-07
5.88448e-08
9.86074e-07
5.72594e-08
9.73246e-07
5.57269e-08
9.60752e-07
5.42467e-08
9.48579e-07
5.28186e-08
9.36716e-07
5.14393e-08
9.25154e-07
5.01056e-08
9.13883e-07
4.88198e-08
9.02893e-07
4.75779e-08
8.92176e-07
4.63773e-08
8.81722e-07
4.5216e-08
8.71523e-07
4.40923e-08
8.61572e-07
4.30052e-08
8.51861e-07
4.19485e-08
8.42384e-07
4.09225e-08
8.33134e-07
3.99274e-08
8.24105e-07
3.89552e-08
8.15294e-07
3.80069e-08
8.06694e-07
3.70791e-08
7.98305e-07
3.61592e-08
7.90125e-07
3.52466e-08
7.82166e-07
3.42869e-08
7.74437e-07
3.32837e-08
7.67012e-07
3.19658e-08
7.59929e-07
3.04824e-08
7.53592e-07
2.72641e-08
7.48092e-07
2.36579e-08
1.1679e-08
4.06175e-06
2.31331e-08
4.0544e-06
2.80695e-08
4.04791e-06
2.77413e-08
4.04068e-06
2.95339e-08
4.0327e-06
3.13721e-08
4.02381e-06
3.29877e-08
4.01363e-06
3.49784e-08
4.00184e-06
3.75155e-08
3.98811e-06
4.06243e-08
3.97213e-06
4.43587e-08
3.95364e-06
4.87229e-08
3.93249e-06
5.36823e-08
3.9086e-06
5.91825e-08
3.88205e-06
6.5139e-08
3.85299e-06
7.14336e-08
3.82171e-06
7.79418e-08
3.78859e-06
8.45646e-08
3.75403e-06
9.12208e-08
3.71843e-06
9.78386e-08
3.68219e-06
1.04366e-07
3.64566e-06
1.10768e-07
3.60912e-06
1.17025e-07
3.5728e-06
1.23131e-07
3.53686e-06
1.29097e-07
3.50143e-06
1.34939e-07
3.46657e-06
1.4066e-07
3.43233e-06
1.46266e-07
3.3987e-06
1.51772e-07
3.36568e-06
1.57182e-07
3.33326e-06
1.62499e-07
3.3014e-06
1.67744e-07
3.27004e-06
1.72942e-07
3.23913e-06
1.7811e-07
3.20861e-06
1.83263e-07
3.17841e-06
1.88415e-07
3.14846e-06
1.93581e-07
3.11868e-06
1.98785e-07
3.08899e-06
2.04047e-07
3.05931e-06
2.0938e-07
3.02953e-06
2.14777e-07
2.99956e-06
2.2022e-07
2.96929e-06
2.25676e-07
2.93861e-06
2.31084e-07
2.90739e-06
2.3637e-07
2.87552e-06
2.41434e-07
2.84289e-06
2.46164e-07
2.80942e-06
2.50453e-07
2.77504e-06
2.54188e-07
2.73971e-06
2.57274e-07
2.70342e-06
2.59637e-07
2.6662e-06
2.61227e-07
2.62812e-06
2.62023e-07
2.58926e-06
2.62031e-07
2.54971e-06
2.6127e-07
2.50961e-06
2.59781e-07
2.46908e-06
2.57628e-07
2.42826e-06
2.54868e-07
2.38726e-06
2.51563e-07
2.34623e-06
2.47781e-07
2.30528e-06
2.43596e-07
2.26452e-06
2.39079e-07
2.22405e-06
2.34291e-07
2.18396e-06
2.29294e-07
2.14433e-06
2.24139e-07
2.10523e-06
2.18861e-07
2.06672e-06
2.13502e-07
2.02884e-06
2.08099e-07
1.99163e-06
2.02679e-07
1.95514e-06
1.97269e-07
1.91939e-06
1.91894e-07
1.88439e-06
1.86583e-07
1.85016e-06
1.81354e-07
1.81671e-06
1.76215e-07
1.78404e-06
1.71177e-07
1.75215e-06
1.6625e-07
1.72104e-06
1.61438e-07
1.6907e-06
1.56743e-07
1.66112e-06
1.52164e-07
1.6323e-06
1.4771e-07
1.60423e-06
1.43383e-07
1.57689e-06
1.3918e-07
1.55026e-06
1.35102e-07
1.52434e-06
1.31149e-07
1.4991e-06
1.27315e-07
1.47454e-06
1.23605e-07
1.45063e-06
1.2001e-07
1.42736e-06
1.16526e-07
1.40471e-06
1.13155e-07
1.38267e-06
1.09894e-07
1.36122e-06
1.06737e-07
1.34035e-06
1.03682e-07
1.32003e-06
1.00727e-07
1.30026e-06
9.78706e-08
1.28102e-06
9.51041e-08
1.26228e-06
9.24287e-08
1.24405e-06
8.98449e-08
1.2263e-06
8.73434e-08
1.20902e-06
8.49243e-08
1.1922e-06
8.25885e-08
1.17582e-06
8.03265e-08
1.15986e-06
7.81398e-08
1.14432e-06
7.60259e-08
1.12919e-06
7.39817e-08
1.11444e-06
7.20055e-08
1.10007e-06
7.00945e-08
1.08607e-06
6.82473e-08
1.07243e-06
6.64647e-08
1.05912e-06
6.47428e-08
1.04615e-06
6.30764e-08
1.0335e-06
6.14685e-08
1.02117e-06
5.99145e-08
1.00913e-06
5.84124e-08
9.97388e-07
5.69589e-08
9.85929e-07
5.55514e-08
9.74744e-07
5.41898e-08
9.63827e-07
5.28656e-08
9.5317e-07
5.15794e-08
9.42765e-07
5.03322e-08
9.32608e-07
4.91128e-08
9.22692e-07
4.79224e-08
9.13013e-07
4.67587e-08
9.03568e-07
4.56043e-08
8.94357e-07
4.44575e-08
8.85392e-07
4.32514e-08
8.76686e-07
4.19904e-08
8.68319e-07
4.0332e-08
8.60338e-07
3.84641e-08
8.53196e-07
3.4406e-08
8.46994e-07
2.98596e-08
1.4744e-08
4.26753e-06
3.56681e-08
4.25789e-06
3.77109e-08
4.24807e-06
3.75589e-08
4.23579e-06
4.18204e-08
4.22104e-06
4.61183e-08
4.20335e-06
5.0678e-08
4.18224e-06
5.60891e-08
4.15752e-06
6.22381e-08
4.12921e-06
6.89334e-08
4.09754e-06
7.60282e-08
4.06295e-06
8.33078e-08
4.02605e-06
9.05825e-08
3.98752e-06
9.77144e-08
3.94805e-06
1.04609e-07
3.90828e-06
1.11205e-07
3.86875e-06
1.17473e-07
3.82987e-06
1.23446e-07
3.79192e-06
1.29172e-07
3.75507e-06
1.34688e-07
3.71941e-06
1.40025e-07
3.68497e-06
1.45201e-07
3.65175e-06
1.5025e-07
3.61968e-06
1.55203e-07
3.58869e-06
1.60082e-07
3.55871e-06
1.64917e-07
3.52965e-06
1.69718e-07
3.50143e-06
1.74492e-07
3.47394e-06
1.79257e-07
3.44712e-06
1.8401e-07
3.42087e-06
1.88746e-07
3.39512e-06
1.93492e-07
3.36979e-06
1.98278e-07
3.34478e-06
2.03118e-07
3.32001e-06
2.08027e-07
3.29542e-06
2.13009e-07
3.27092e-06
2.1808e-07
3.24644e-06
2.23263e-07
3.2219e-06
2.28586e-07
3.19721e-06
2.34069e-07
3.17229e-06
2.39702e-07
3.14703e-06
2.45474e-07
3.12135e-06
2.51357e-07
3.09513e-06
2.57302e-07
3.06826e-06
2.6324e-07
3.04062e-06
2.69076e-07
3.0121e-06
2.74689e-07
2.98258e-06
2.79968e-07
2.95199e-06
2.84782e-07
2.92026e-06
2.89006e-07
2.88736e-06
2.92539e-07
2.85328e-06
2.95303e-07
2.81806e-06
2.97242e-07
2.78176e-06
2.98332e-07
2.74446e-06
2.98566e-07
2.70628e-06
2.97963e-07
2.66733e-06
2.96576e-07
2.62775e-06
2.94449e-07
2.58768e-06
2.91638e-07
2.54724e-06
2.88216e-07
2.50658e-06