/*--------------------------------*- C++ -*----------------------------------*\
| =========                 |                                                 |
| \\      /  F ield         | OpenFOAM: The Open Source CFD Toolbox           |
|  \\    /   O peration     | Version:  1.7.x                                 |
|   \\  /    A nd           | Web:      www.OpenFOAM.com                      |
|    \\/     M anipulation  |                                                 |
\*---------------------------------------------------------------------------*/
FoamFile
{
    version     2.0;
    format      ascii;
    class       volVectorField;
    location    "3900";
    object      U;
}
// * * * * * * * * * * * * * * * * * * * * * * * * * * * * * * * * * * * * * //

dimensions      [0 1 -1 0 0 0 0];

internalField   nonuniform List<vector> 
5460
(
(30.9655 0.00268382 0)
(30.9513 0.00379344 -1.18858e-18)
(30.9204 0.00440186 -1.41785e-17)
(30.8822 0.00463902 -1.71484e-16)
(30.843 0.00472154 -2.25331e-15)
(30.8032 0.00473882 -7.21549e-15)
(30.7626 0.00471485 -1.7799e-14)
(30.7215 0.00467658 -1.49075e-13)
(30.6799 0.00463789 -1.06221e-11)
(30.6379 0.00460418 -4.88046e-12)
(30.5954 0.00457704 -2.44608e-12)
(30.5524 0.00455453 -1.37992e-12)
(30.5088 0.00453777 -8.88181e-13)
(30.4645 0.00452769 -6.33862e-13)
(30.4194 0.0045244 -4.55366e-13)
(30.3735 0.00452768 -3.06359e-13)
(30.3267 0.00453823 -1.77828e-13)
(30.2789 0.00455675 -7.68228e-14)
(30.23 0.00458542 -1.9506e-13)
(30.1798 0.00462661 3.68268e-14)
(30.1281 0.0046851 2.09689e-13)
(30.0747 0.0047643 2.89894e-13)
(30.0192 0.00486897 2.79378e-13)
(29.9613 0.00500885 2.3185e-13)
(29.9005 0.00519189 6.04928e-13)
(29.836 0.00543116 8.66697e-13)
(29.767 0.00574362 1.09602e-12)
(29.6923 0.00614686 1.38523e-12)
(29.6105 0.00666383 1.63731e-12)
(29.5196 0.00732215 1.76402e-12)
(29.4175 0.00815101 1.74126e-12)
(29.3013 0.00918486 1.53669e-12)
(29.1677 0.0104555 1.27437e-12)
(29.0128 0.0119848 9.39517e-13)
(28.8323 0.0137812 5.50847e-13)
(28.622 0.0158273 -1.3586e-11)
(28.3777 0.0180735 -4.18726e-12)
(28.0961 0.0204372 -1.48889e-12)
(27.7751 0.0228072 -4.44013e-13)
(27.4142 0.0250592 1.1072e-11)
(27.0148 0.0270771 2.93316e-12)
(26.5801 0.0287703 9.5527e-13)
(26.1142 0.0300818 4.83847e-13)
(25.6224 0.0309908 2.73401e-13)
(25.1103 0.031507 -5.08578e-13)
(24.5835 0.0316623 -4.73487e-13)
(24.0471 0.0315045 -4.4385e-14)
(23.5059 0.0310859 -1.54775e-13)
(22.9639 0.0304561 -3.76432e-13)
(22.4246 0.0296622 -1.10809e-12)
(21.8907 0.0287482 -6.09473e-13)
(21.3646 0.0277511 3.54243e-13)
(20.848 0.0266988 2.02936e-13)
(20.3421 0.0256149 -1.05947e-11)
(19.8482 0.0245208 -9.67671e-13)
(19.3667 0.0234304 2.65258e-14)
(18.8983 0.0223531 7.89524e-14)
(18.4431 0.0212984 3.93546e-13)
(18.0014 0.0202719 2.98161e-13)
(17.5732 0.0192785 4.66322e-13)
(17.1583 0.0183216 1.48454e-12)
(16.7566 0.0174025 6.87363e-13)
(16.3679 0.0165234 -4.93491e-12)
(15.9919 0.0156833 -1.08839e-12)
(15.6283 0.014883 -6.04462e-13)
(15.2768 0.01412 -7.95621e-12)
(14.937 0.0133937 -1.25284e-12)
(14.6086 0.0127041 6.79482e-12)
(14.2912 0.012049 6.80176e-13)
(13.9846 0.0114279 -2.61929e-13)
(13.6882 0.0108399 2.04778e-13)
(13.4018 0.0102835 1.04132e-12)
(13.125 0.00975699 -1.8814e-13)
(12.8574 0.00925879 -8.41587e-13)
(12.5987 0.00878745 -3.34674e-14)
(12.3486 0.0083417 1.45968e-13)
(12.1067 0.00791997 1.50622e-13)
(11.8727 0.00752092 5.65685e-14)
(11.6463 0.0071436 -1.54271e-12)
(11.4272 0.0067866 5.52156e-12)
(11.2152 0.00644884 7.21706e-13)
(11.01 0.0061294 2.84707e-13)
(10.8113 0.00582702 7.5381e-13)
(10.6188 0.00554118 1.30799e-12)
(10.4324 0.00527035 2.82793e-12)
(10.2518 0.00501371 9.36036e-13)
(10.0768 0.00477083 3.95348e-13)
(9.90715 0.00454086 -3.13804e-13)
(9.74269 0.00432295 1.32624e-13)
(9.58323 0.00411634 1.16828e-12)
(9.42857 0.00392056 6.65221e-13)
(9.27854 0.00373458 -2.75975e-13)
(9.13297 0.00355863 1.58103e-12)
(8.99169 0.00339183 3.36969e-13)
(8.85455 0.0032331 8.41052e-14)
(8.7214 0.00308278 -9.0917e-13)
(8.5921 0.00294024 -4.77518e-13)
(8.4665 0.00280487 -2.02709e-12)
(8.34448 0.00267619 1.66448e-13)
(8.22591 0.00255398 4.74192e-13)
(8.11066 0.00243796 8.57233e-13)
(7.99863 0.00232761 -1.99307e-12)
(7.88969 0.00222295 8.09923e-13)
(7.78375 0.00212348 -1.55463e-13)
(7.6807 0.00202884 -2.73389e-12)
(7.58045 0.00193896 -7.75821e-13)
(7.48289 0.00185354 7.4446e-12)
(7.38794 0.00177228 1.30098e-13)
(7.29552 0.00169501 -9.16761e-13)
(7.20554 0.00162156 1.31745e-12)
(7.11792 0.00155175 -7.99763e-12)
(7.03259 0.00148532 -1.81455e-12)
(6.94947 0.00142211 -1.46951e-13)
(6.86849 0.00136186 -7.60089e-14)
(6.78959 0.00130436 -3.38329e-13)
(6.71269 0.00124949 -2.30628e-13)
(6.63774 0.00119708 -1.17389e-13)
(6.56466 0.00114706 6.55961e-13)
(6.49342 0.00109912 -5.55608e-13)
(6.42394 0.0010532 -1.61212e-13)
(6.35619 0.00100916 -1.42559e-12)
(6.29011 0.000966584 1.39759e-12)
(6.22571 0.000925342 6.75054e-12)
(6.16296 0.000884092 4.65088e-13)
(6.10205 0.000843027 1.96442e-13)
(6.04291 0.000795107 9.80948e-14)
(5.98684 0.000744886 4.7402e-12)
(5.93302 0.000653829 3.92606e-14)
(5.88901 0.000558407 2.57719e-12)
(5.84789 0.000268724 -3.80709e-13)
(30.8665 0.00584535 0)
(30.8541 0.00923855 -3.85353e-18)
(30.8247 0.0109308 -3.50384e-17)
(30.7875 0.0116422 -6.71535e-16)
(30.7491 0.0119839 -9.97085e-15)
(30.7098 0.0121137 -2.8816e-14)
(30.6696 0.0120981 -6.10255e-14)
(30.6287 0.0120287 -2.16512e-13)
(30.5874 0.0119497 -6.67718e-12)
(30.5455 0.0118765 -4.32706e-12)
(30.5031 0.0118157 -2.86652e-12)
(30.4601 0.0117658 -2.04459e-12)
(30.4164 0.0117299 -1.5942e-12)
(30.3721 0.0117111 -1.30449e-12)
(30.3269 0.0117099 -9.70801e-13)
(30.2809 0.0117269 -6.36997e-13)
(30.2338 0.0117632 -3.32244e-13)
(30.1857 0.0118216 -9.55897e-14)
(30.1363 0.0119097 -6.98071e-13)
(30.0855 0.0120343 4.89268e-13)
(30.033 0.0122066 9.24315e-13)
(29.9784 0.0124371 1.01922e-12)
(29.9214 0.0127399 8.52271e-13)
(29.8614 0.0131414 6.51083e-13)
(29.7979 0.0136654 2.22125e-12)
(29.7299 0.0143452 2.80088e-12)
(29.6564 0.015226 3.24199e-12)
(29.5761 0.0163566 3.98365e-12)
(29.4872 0.0177961 4.59381e-12)
(29.3877 0.0196152 4.86901e-12)
(29.2751 0.0218877 4.754e-12)
(29.1467 0.0246952 4.08171e-12)
(28.9991 0.0281075 3.34613e-12)
(28.8288 0.0321652 2.46609e-12)
(28.6323 0.0368697 1.58865e-12)
(28.4062 0.0421584 -1.04772e-11)
(28.1476 0.0478963 -5.60813e-12)
(27.8544 0.0538766 -2.63135e-12)
(27.5257 0.0598341 -8.81924e-13)
(27.1615 0.0654795 9.93009e-12)
(26.7635 0.070542 4.71167e-12)
(26.3343 0.0748066 1.95024e-12)
(25.8776 0.0781355 1.2256e-12)
(25.3975 0.0804713 7.25918e-13)
(24.899 0.0818285 -1.6916e-12)
(24.3866 0.0822783 -1.36073e-12)
(23.8649 0.0819315 -2.82307e-15)
(23.3382 0.0809132 -4.47373e-13)
(22.8101 0.0793461 -1.12996e-12)
(22.284 0.0773483 -3.30797e-12)
(21.7624 0.0750301 -1.65679e-12)
(21.2476 0.072487 1.15292e-12)
(20.7413 0.0697916 6.20972e-13)
(20.245 0.0670059 -1.17826e-11)
(19.7597 0.0641859 -1.5746e-12)
(19.2861 0.0613681 1.60934e-13)
(18.8248 0.0585782 2.16541e-13)
(18.3761 0.0558423 1.13079e-12)
(17.9402 0.0531752 8.25098e-13)
(17.5172 0.0505906 1.33033e-12)
(17.1071 0.0480978 4.34167e-12)
(16.7097 0.0457011 1.93123e-12)
(16.325 0.0434064 -7.32609e-12)
(15.9525 0.0412121 -2.77544e-12)
(15.5921 0.0391197 -1.64134e-12)
(15.2435 0.0371235 -1.01001e-11)
(14.9064 0.0352223 -3.18342e-12)
(14.5804 0.0334161 7.3003e-12)
(14.2652 0.0316995 1.53385e-12)
(13.9606 0.0300711 -7.92727e-13)
(13.6661 0.0285286 6.07273e-13)
(13.3813 0.0270688 3.05435e-12)
(13.1061 0.0256866 -5.81744e-13)
(12.8399 0.0243785 -2.46602e-12)
(12.5825 0.0231406 -7.0708e-14)
(12.3335 0.0219693 4.22356e-13)
(12.0927 0.0208611 4.29763e-13)
(11.8597 0.0198122 1.63676e-13)
(11.6342 0.0188201 -4.45369e-12)
(11.416 0.0178813 6.2427e-12)
(11.2047 0.0169929 1.87435e-12)
(11.0002 0.0161525 7.89249e-13)
(10.8021 0.0153569 2.14912e-12)
(10.6103 0.0146047 3.73301e-12)
(10.4244 0.0138919 8.36243e-12)
(10.2444 0.0132164 2.56954e-12)
(10.0698 0.0125769 1.09889e-12)
(9.90063 0.0119714 -9.21496e-13)
(9.73658 0.0113975 3.84174e-13)
(9.5775 0.0108534 3.35348e-12)
(9.4232 0.0103377 1.88263e-12)
(9.2735 0.00984789 -8.01079e-13)
(9.12824 0.00938435 4.57659e-12)
(8.98725 0.00894483 9.35647e-13)
(8.85037 0.00852665 2.35966e-13)
(8.71747 0.00813055 -2.62357e-12)
(8.5884 0.0077549 -1.34785e-12)
(8.46302 0.00739812 -5.7803e-12)
(8.3412 0.00705898 5.59827e-13)
(8.22282 0.00673683 1.35293e-12)
(8.10775 0.00643101 2.44715e-12)
(7.99588 0.00614015 -5.72957e-12)
(7.8871 0.0058642 2.37752e-12)
(7.7813 0.00560194 -4.5194e-13)
(7.67839 0.00535245 -7.85038e-12)
(7.57826 0.00511544 -2.18684e-12)
(7.48082 0.0048902 8.45413e-12)
(7.38599 0.00467591 2.599e-13)
(7.29367 0.00447215 -2.6344e-12)
(7.20379 0.00427849 3.7868e-12)
(7.11626 0.00409435 -1.08413e-11)
(7.03102 0.0039191 -5.08839e-12)
(6.94798 0.00375242 -3.96693e-13)
(6.86708 0.00359351 -2.15074e-13)
(6.78824 0.00344184 -9.66031e-13)
(6.71141 0.00329712 -6.54835e-13)
(6.63652 0.00315887 -3.3318e-13)
(6.56351 0.00302691 1.88032e-12)
(6.49232 0.00290045 -1.60505e-12)
(6.4229 0.00277933 -4.53909e-13)
(6.3552 0.00266314 -4.07236e-12)
(6.28917 0.00255081 4.01155e-12)
(6.22482 0.00244203 9.59851e-12)
(6.16211 0.00233321 1.26467e-12)
(6.10124 0.00222483 5.56861e-13)
(6.04214 0.00209847 2.75623e-13)
(5.9861 0.00196578 3.71768e-12)
(5.93232 0.00172603 6.47815e-14)
(5.88833 0.00147311 7.35436e-12)
(5.84723 0.00071066 -1.12012e-12)
(30.6615 0.00875185 -1.48276e-19)
(30.6482 0.0145928 -5.12057e-18)
(30.6182 0.0171855 -1.11097e-16)
(30.5809 0.0182494 -2.8102e-15)
(30.5425 0.0188498 -5.26823e-14)
(30.5034 0.0191068 -1.19427e-13)
(30.4633 0.0191111 -1.95604e-13)
(30.4224 0.0190277 -2.5553e-13)
(30.3811 0.0189289 2.38226e-12)
(30.3392 0.018833 4.66825e-12)
(30.2968 0.0187519 2.58407e-12)
(30.2537 0.018689 1.09288e-12)
(30.21 0.0186502 1.19172e-13)
(30.1654 0.0186417 -4.27629e-13)
(30.1199 0.0186653 -1.13997e-13)
(30.0733 0.0187221 1.62338e-13)
(30.0256 0.0188174 3.93407e-13)
(29.9765 0.0189597 5.21439e-13)
(29.9257 0.0191651 -2.88038e-12)
(29.873 0.0194495 4.85172e-12)
(29.8179 0.0198329 3.39289e-12)
(29.76 0.020338 2.49017e-12)
(29.6986 0.0209949 1.35826e-12)
(29.6329 0.0218496 7.73642e-13)
(29.5619 0.0229512 8.19657e-12)
(29.4845 0.024359 6.37171e-12)
(29.3991 0.0261482 5.64125e-12)
(29.3041 0.0284013 6.777e-12)
(29.1974 0.0312085 7.26029e-12)
(29.0766 0.0346651 7.20977e-12)
(28.9394 0.0388586 6.72723e-12)
(28.7831 0.043865 4.90059e-12)
(28.6052 0.0497209 3.89241e-12)
(28.4034 0.056405 2.97873e-12)
(28.1757 0.0638359 2.21464e-12)
(27.9207 0.0718566 -5.45642e-13)
(27.6378 0.0802417 -9.04666e-13)
(27.3267 0.0887094 -4.5825e-13)
(26.9877 0.0969444 9.67506e-14)
(26.6217 0.104627 2.55365e-12)
(26.2302 0.111461 2.16577e-12)
(25.8149 0.11721 8.96842e-13)
(25.3783 0.121719 1.55851e-12)
(24.9232 0.124909 9.50188e-13)
(24.4526 0.126783 -4.46827e-12)
(23.9699 0.127412 -2.21691e-12)
(23.4785 0.126922 9.40516e-13)
(22.9816 0.125464 -8.46295e-13)
(22.4823 0.123196 -2.27162e-12)
(21.9834 0.120277 -6.49926e-12)
(21.4874 0.116857 -2.17347e-12)
(20.9964 0.113075 2.84512e-12)
(20.512 0.109039 9.73809e-13)
(20.0358 0.104841 -4.13074e-12)
(19.5688 0.100569 9.46346e-14)
(19.1119 0.0962785 5.58016e-13)
(18.6657 0.0920124 3.00475e-13)
(18.2307 0.087812 1.95489e-12)
(17.8073 0.0837039 1.22648e-12)
(17.3957 0.0797107 2.23995e-12)
(16.9958 0.0758488 8.06572e-12)
(16.6078 0.0721274 2.94071e-12)
(16.2315 0.0685557 -6.30608e-12)
(15.8667 0.0651348 -3.66104e-12)
(15.5132 0.0618664 -2.40586e-12)
(15.171 0.0587435 -5.20938e-12)
(14.8396 0.0557656 -4.4587e-12)
(14.5188 0.0529319 1.56617e-12)
(14.2085 0.050236 1.32068e-12)
(13.9082 0.0476759 -1.56707e-12)
(13.6176 0.0452483 1.1649e-12)
(13.3366 0.0429486 5.80677e-12)
(13.0646 0.0407693 -1.28537e-12)
(12.8015 0.0387055 -4.69586e-12)
(12.5469 0.0367515 5.62497e-14)
(12.3004 0.0349008 7.46579e-13)
(12.062 0.0331488 7.21021e-13)
(11.8311 0.0314897 2.89464e-13)
(11.6076 0.0299196 -7.75003e-12)
(11.3912 0.0284334 1.65614e-12)
(11.1817 0.0270264 2.70181e-12)
(10.9787 0.0256944 1.19103e-12)
(10.7821 0.0244332 3.59504e-12)
(10.5916 0.0232401 6.26829e-12)
(10.407 0.0221095 7.72173e-12)
(10.228 0.0210376 3.53723e-12)
(10.0545 0.0200224 1.66846e-12)
(9.88632 0.019061 -1.71213e-12)
(9.72318 0.0181495 6.85058e-13)
(9.56494 0.0172852 5.75758e-12)
(9.41142 0.0164656 3.05901e-12)
(9.26244 0.0156873 -1.42752e-12)
(9.11786 0.0149505 8.20908e-12)
(8.97749 0.0142515 1.39677e-12)
(8.8412 0.0135866 3.70966e-13)
(8.70885 0.0129566 -4.58774e-12)
(8.58028 0.0123589 -2.16165e-12)
(8.45538 0.0117912 -9.67462e-12)
(8.334 0.0112516 1.5921e-12)
(8.21603 0.0107388 2.25794e-12)
(8.10135 0.010252 4.11393e-12)
(7.98984 0.00978911 -9.88931e-12)
(7.8814 0.00934963 4.51366e-12)
(7.77592 0.008932 -8.16635e-13)
(7.67331 0.00853467 -1.35084e-11)
(7.57346 0.0081572 -3.46096e-12)
(7.47628 0.00779839 1.99143e-12)
(7.38169 0.00745702 1.32475e-13)
(7.2896 0.00713243 -4.53854e-12)
(7.19993 0.0068239 6.50714e-12)
(7.11261 0.00653045 -7.28096e-12)
(7.02756 0.00625112 -8.30247e-12)
(6.9447 0.0059855 -5.22629e-13)
(6.86397 0.00573222 -3.49844e-13)
(6.78529 0.0054905 -1.62468e-12)
(6.70861 0.00525983 -1.07809e-12)
(6.63387 0.0050394 -5.47827e-13)
(6.56099 0.00482902 3.21047e-12)
(6.48992 0.00462744 -2.81948e-12)
(6.42062 0.00443438 -7.20895e-13)
(6.35303 0.00424906 -6.86426e-12)
(6.28711 0.00406989 6.8954e-12)
(6.22286 0.00389654 6.45011e-12)
(6.16024 0.00372303 1.92578e-12)
(6.09946 0.00355008 9.12175e-13)
(6.04045 0.00334868 4.46462e-13)
(5.98448 0.00313667 3.06851e-12)
(5.93077 0.00275509 -6.97297e-15)
(5.88684 0.00234943 1.23459e-11)
(5.84579 0.00113623 -2.09677e-12)
(30.3448 0.0124384 -7.59237e-19)
(30.3301 0.020767 -1.36585e-17)
(30.2988 0.02411 -3.69856e-16)
(30.2609 0.0254672 -1.19744e-14)
(30.2222 0.0263101 -3.23849e-13)
(30.1828 0.0266656 -5.04804e-13)
(30.1425 0.0266685 -6.17483e-13)
(30.1015 0.0265616 -7.04519e-13)
(30.06 0.0264361 -5.00604e-13)
(30.0179 0.0263134 2.24184e-12)
(29.9752 0.0262141 1.241e-12)
(29.9318 0.0261504 3.93613e-13)
(29.8876 0.0261309 -2.14402e-13)
(29.8423 0.0261653 -5.38754e-13)
(29.7958 0.0262596 2.57944e-12)
(29.748 0.0264194 2.2106e-12)
(29.6984 0.0266595 1.93565e-12)
(29.6468 0.027002 1.71404e-12)
(29.5926 0.0274756 1.01217e-12)
(29.5354 0.0281109 1.54114e-12)
(29.4744 0.0289476 1.68439e-12)
(29.4087 0.0300325 1.62528e-12)
(29.3373 0.0314226 -1.11231e-12)
(29.259 0.0331866 -6.57104e-13)
(29.1723 0.035403 5.59907e-12)
(29.0756 0.0381642 4.70225e-12)
(28.967 0.0415688 4.47003e-12)
(28.8446 0.0457109 9.60628e-12)
(28.7062 0.0506728 8.3149e-12)
(28.5501 0.0565147 7.39745e-12)
(28.3744 0.0632597 6.52784e-12)
(28.1779 0.0708908 1.20639e-12)
(27.9598 0.0793306 2.23886e-12)
(27.7197 0.0884392 2.43978e-12)
(27.4578 0.0980332 2.40882e-12)
(27.1746 0.10789 1.88826e-12)
(26.8711 0.117767 1.45348e-12)
(26.548 0.127405 1.22168e-12)
(26.2064 0.136545 1.10592e-12)
(25.8471 0.144939 4.72414e-13)
(25.4709 0.152351 4.23171e-13)
(25.0788 0.158585 -8.23244e-13)
(24.6719 0.163498 2.62804e-12)
(24.2514 0.167003 9.18517e-13)
(23.819 0.169072 -2.46888e-12)
(23.3764 0.16975 -1.88862e-12)
(22.9258 0.169137 -3.61404e-12)
(22.4695 0.16737 -2.07062e-12)
(22.0095 0.164606 -4.24457e-12)
(21.5483 0.161012 6.4271e-13)
(21.0878 0.156756 -1.04382e-12)
(20.63 0.152002 7.72229e-13)
(20.1765 0.14688 5.95077e-13)
(19.7287 0.141509 -1.40066e-12)
(19.2878 0.136001 2.10769e-12)
(18.8548 0.130434 7.96372e-13)
(18.4304 0.124864 2.09101e-13)
(18.0154 0.11935 2.98989e-12)
(17.6101 0.11393 1.34605e-12)
(17.215 0.10864 3.26357e-12)
(16.8301 0.103504 5.5238e-12)
(16.4557 0.0985383 3.11321e-12)
(16.0918 0.0937566 -8.0251e-12)
(15.7383 0.0891652 -4.13042e-12)
(15.3952 0.0847663 -2.93496e-12)
(15.0623 0.0805544 -3.03548e-12)
(14.7394 0.0765306 -6.00648e-12)
(14.4265 0.0726932 -8.36664e-13)
(14.1232 0.0690364 8.64045e-13)
(13.8294 0.0655584 3.56125e-12)
(13.5448 0.0622557 2.06786e-12)
(13.2692 0.0591226 3.76617e-12)
(13.0022 0.0561498 -2.73202e-12)
(12.7436 0.0533321 -2.12216e-12)
(12.4932 0.0506615 6.23679e-13)
(12.2506 0.0481296 1.14138e-12)
(12.0156 0.0457305 1.02277e-12)
(11.788 0.0434566 4.49831e-13)
(11.5675 0.0413032 -6.58955e-12)
(11.3539 0.0392639 -2.81662e-13)
(11.1469 0.0373317 3.68259e-12)
(10.9463 0.035501 1.41868e-12)
(10.7518 0.0337672 4.33743e-13)
(10.5633 0.0321257 4.37909e-12)
(10.3805 0.0305698 8.19399e-12)
(10.2033 0.0290942 3.95165e-12)
(10.0314 0.0276957 2.05397e-12)
(9.86467 0.0263707 -2.80781e-12)
(9.7029 0.0251141 1.08751e-12)
(9.54592 0.0239223 8.51387e-12)
(9.39358 0.0227915 4.11152e-12)
(9.2457 0.0217178 -2.27118e-12)
(9.10213 0.0207009 4.81664e-12)
(8.96272 0.0197353 1.52603e-12)
(8.82731 0.0188172 4.79259e-13)
(8.69578 0.0179469 -6.99285e-12)
(8.56799 0.0171208 -2.83894e-12)
(8.4438 0.0163361 -1.37961e-11)
(8.32309 0.0155903 -3.65297e-12)
(8.20575 0.0148813 -3.77032e-13)
(8.09165 0.0142081 5.8986e-12)
(7.98069 0.0135679 -1.13144e-11)
(7.87276 0.0129598 7.42827e-13)
(7.76776 0.0123819 -1.33836e-12)
(7.6656 0.011832 -1.34213e-11)
(7.56617 0.0113096 -4.38116e-12)
(7.46939 0.0108128 -2.31937e-12)
(7.37517 0.0103402 -1.88703e-14)
(7.28343 0.0098908 -6.71394e-12)
(7.19409 0.00946352 3.54949e-12)
(7.10707 0.00905709 -6.68509e-12)
(7.02231 0.00867013 -5.77803e-12)
(6.93972 0.00830204 -4.15716e-13)
(6.85925 0.0079511 -4.78192e-13)
(6.78081 0.00761629 -2.33094e-12)
(6.70436 0.00729662 -1.49006e-12)
(6.62983 0.00699114 -7.56142e-13)
(6.55715 0.0066996 4.70314e-12)
(6.48628 0.00642019 -4.3092e-12)
(6.41716 0.00615263 -9.29133e-13)
(6.34974 0.00589565 -9.85932e-12)
(6.28398 0.00564718 1.02372e-11)
(6.21988 0.00540699 5.23327e-12)
(6.1574 0.00516643 2.53034e-12)
(6.09676 0.00492648 1.25258e-12)
(6.03787 0.00464726 6.06964e-13)
(5.98203 0.00435299 2.62019e-12)
(5.92843 0.00382409 -1.65955e-13)
(5.88459 0.0032599 8.42505e-12)
(5.84361 0.00157847 -3.47551e-12)
(29.9075 0.0169343 -3.28455e-18)
(29.8902 0.0276066 -5.40553e-17)
(29.8569 0.031366 -9.95482e-16)
(29.8181 0.0328943 -4.22607e-14)
(29.7788 0.0339244 -2.20736e-12)
(29.7389 0.0343205 -1.77311e-12)
(29.6982 0.0342898 -1.48113e-12)
(29.6569 0.0341487 -1.29102e-12)
(29.615 0.0339973 -1.16862e-12)
(29.5724 0.0338615 -8.23318e-13)
(29.5291 0.0337731 -7.35687e-13)
(29.4848 0.033755 -7.75394e-13)
(29.4393 0.0338228 -8.52112e-13)
(29.3922 0.0339937 -8.42536e-13)
(29.3433 0.0342846 3.71337e-12)
(29.292 0.0347151 2.93545e-12)
(29.2378 0.0353178 2.3931e-12)
(29.18 0.0361397 2.00689e-12)
(29.1178 0.0372299 1.64767e-12)
(29.0501 0.0386438 1.47555e-12)
(28.9757 0.0404508 1.39321e-12)
(28.8934 0.0427286 1.33695e-12)
(28.8016 0.0455654 8.33362e-13)
(28.6985 0.0490438 5.01792e-13)
(28.5827 0.0532446 1.22321e-12)
(28.4522 0.0582534 1.57862e-12)
(28.3057 0.0641334 1.94286e-12)
(28.1418 0.0709108 3.21074e-12)
(27.9596 0.078568 3.86962e-12)
(27.7588 0.0870408 4.12934e-12)
(27.5393 0.0962219 4.09825e-12)
(27.3019 0.105969 3.14852e-12)
(27.0475 0.116106 2.89042e-12)
(26.7774 0.126438 2.71489e-12)
(26.4928 0.136776 2.56861e-12)
(26.1951 0.146938 2.4101e-12)
(25.8854 0.156764 2.15044e-12)
(25.5646 0.166096 1.86796e-12)
(25.2334 0.174784 1.55714e-12)
(24.8922 0.182684 -1.83937e-12)
(24.5413 0.189642 -8.18168e-13)
(24.1807 0.195515 -3.47889e-12)
(23.8106 0.200181 -7.53819e-13)
(23.4311 0.203544 -3.37299e-13)
(23.0429 0.205547 -3.75871e-12)
(22.6464 0.206189 -1.54254e-12)
(22.2428 0.205519 -2.85846e-12)
(21.8332 0.203632 -2.27064e-12)
(21.4191 0.200652 -2.72291e-12)
(21.002 0.196723 -8.92889e-13)
(20.5837 0.192007 -1.03641e-12)
(20.1657 0.186669 -1.16437e-13)
(19.7494 0.18085 1.74501e-13)
(19.3362 0.17468 -5.2157e-13)
(18.9274 0.168288 8.1558e-13)
(18.524 0.161772 3.58609e-13)
(18.1268 0.155202 -1.67107e-13)
(17.7367 0.148649 1.24093e-12)
(17.3543 0.142166 9.19753e-13)
(16.98 0.135803 4.70783e-12)
(16.6142 0.129594 4.69771e-12)
(16.2572 0.123563 3.12845e-12)
(15.9092 0.117731 -6.89124e-12)
(15.5702 0.112111 -3.97235e-12)
(15.2404 0.106706 -3.28211e-12)
(14.9195 0.101517 -1.48253e-12)
(14.6078 0.096547 -3.26645e-12)
(14.3049 0.0917932 -1.37711e-12)
(14.0109 0.0872531 4.09638e-13)
(13.7256 0.0829261 3.84302e-12)
(13.4487 0.0788089 2.72445e-12)
(13.1801 0.0748955 3.13954e-12)
(12.9196 0.0711769 -4.68136e-13)
(12.667 0.0676471 -5.68689e-13)
(12.4221 0.0642969 1.3787e-12)
(12.1846 0.0611168 1.58881e-12)
(11.9542 0.0580999 1.32848e-12)
(11.7309 0.0552369 6.2478e-13)
(11.5143 0.052523 -6.54825e-12)
(11.3043 0.0499508 -4.64261e-12)
(11.1007 0.0475109 1.28212e-12)
(10.9032 0.0451976 1.39948e-12)
(10.7116 0.0430052 1.40822e-12)
(10.5257 0.0409276 3.51103e-12)
(10.3454 0.0389578 6.00296e-12)
(10.1704 0.0370883 3.89333e-12)
(10.0006 0.0353152 2.26197e-12)
(9.83584 0.0336341 -1.01517e-12)
(9.67588 0.0320393 1.66381e-12)
(9.52059 0.0305259 1.17727e-11)
(9.36981 0.0290892 4.93283e-12)
(9.22339 0.0277251 -3.33153e-13)
(9.08118 0.026432 3.29315e-12)
(8.94302 0.0252035 1.55688e-12)
(8.80879 0.0240356 5.73999e-13)
(8.67836 0.022928 -1.00963e-11)
(8.55158 0.0218757 -3.27887e-12)
(8.42835 0.0208761 -1.82397e-11)
(8.30853 0.0199262 -7.00251e-12)
(8.19202 0.0190226 -2.33374e-12)
(8.0787 0.0181646 2.66391e-12)
(7.96847 0.0173484 -8.81105e-12)
(7.86123 0.0165725 -1.31182e-12)
(7.75687 0.0158353 -1.86228e-12)
(7.6553 0.0151336 -1.51474e-11)
(7.55644 0.014467 -4.98881e-12)
(7.46018 0.0138329 -9.76022e-13)
(7.36646 0.0132295 -3.876e-14)
(7.27518 0.0126557 -4.48213e-12)
(7.18628 0.0121099 1.90814e-12)
(7.09967 0.0115908 -3.07026e-12)
(7.0153 0.0110965 2.76859e-13)
(6.93307 0.010626 -1.76134e-13)
(6.85294 0.0101774 -6.07736e-13)
(6.77483 0.00974962 -3.11418e-12)
(6.69868 0.00934101 -1.88322e-12)
(6.62443 0.00895055 -9.55525e-13)
(6.55203 0.00857781 6.43282e-12)
(6.48141 0.00822051 -6.21686e-12)
(6.41253 0.00787837 -1.03945e-12)
(6.34533 0.00754963 -9.1448e-12)
(6.27979 0.00723178 1.42695e-11)
(6.21589 0.00692469 4.68199e-12)
(6.15361 0.00661697 3.11013e-12)
(6.09315 0.00630976 1.57241e-12)
(6.03443 0.00595248 7.56213e-13)
(5.97874 0.00557578 -1.14416e-12)
(5.92529 0.00489876 -3.78597e-13)
(5.88157 0.0041756 6.17047e-12)
(5.84069 0.00202313 -5.22013e-12)
(29.3327 0.0223466 -1.74708e-17)
(29.3126 0.0351244 -2.61942e-16)
(29.2773 0.0388724 -1.26142e-15)
(29.2378 0.0405022 -1.3336e-14)
(29.1981 0.0417077 -2.96243e-13)
(29.1578 0.0421078 -4.78823e-13)
(29.1166 0.0420356 -5.92903e-13)
(29.0747 0.0418817 -6.59873e-13)
(29.032 0.0417486 -7.14943e-13)
(28.9883 0.0416719 -7.31738e-13)
(28.9433 0.0416988 -7.47993e-13)
(28.8965 0.0418693 -7.73492e-13)
(28.8475 0.0422169 -8.03576e-13)
(28.7957 0.0427791 -8.04931e-13)
(28.7402 0.0435945 4.1962e-14)
(28.6801 0.044708 5.35309e-13)
(28.6145 0.0461842 7.59487e-13)
(28.5421 0.0481018 8.52009e-13)
(28.4616 0.0505384 8.73013e-13)
(28.3713 0.0535734 8.78331e-13)
(28.2699 0.0572925 9.53512e-13)
(28.1558 0.0617728 1.02413e-12)
(28.0274 0.0670796 9.03097e-13)
(27.8836 0.0732538 6.64158e-13)
(27.7234 0.0802972 5.72059e-13)
(27.5463 0.088177 6.56164e-13)
(27.3524 0.0968225 8.2853e-13)
(27.1423 0.106122 1.21358e-12)
(26.9168 0.115926 1.61367e-12)
(26.6773 0.126065 1.92431e-12)
(26.4253 0.136371 2.1215e-12)
(26.1625 0.146682 2.34956e-12)
(25.8902 0.156848 2.53429e-12)
(25.61 0.16674 2.48852e-12)
(25.323 0.176258 2.19056e-12)
(25.0302 0.185322 2.36612e-12)
(24.7322 0.193875 2.23239e-12)
(24.4293 0.20186 1.97389e-12)
(24.1219 0.209217 1.63458e-12)
(23.8097 0.215881 -5.13423e-13)
(23.4925 0.221762 -8.08947e-13)
(23.1699 0.22676 -2.38113e-12)
(22.8414 0.23077 -1.48927e-12)
(22.5067 0.233694 -1.1013e-12)
(22.1655 0.23545 -2.74184e-12)
(21.8177 0.235993 -1.01816e-13)
(21.4635 0.235318 -3.35282e-12)
(21.1034 0.233465 -2.3486e-12)
(20.7381 0.230509 -2.19789e-12)
(20.3686 0.226555 -1.38041e-12)
(19.996 0.221733 -1.1443e-12)
(19.6215 0.216193 -5.32908e-13)
(19.2465 0.21007 -1.37877e-13)
(18.872 0.203495 -2.96066e-13)
(18.4993 0.1966 -9.06362e-14)
(18.1295 0.189494 -2.96152e-13)
(17.7635 0.182265 -7.33149e-13)
(17.4021 0.174989 6.09689e-14)
(17.0461 0.167736 3.57994e-13)
(16.6962 0.160566 4.6476e-12)
(16.3528 0.153526 4.3546e-12)
(16.0164 0.146649 3.09388e-12)
(15.6872 0.139964 -4.24092e-12)
(15.3654 0.133493 -3.4208e-12)
(15.0514 0.127243 -3.57811e-12)
(14.745 0.121221 -3.89491e-12)
(14.4465 0.115433 -1.61468e-12)
(14.1559 0.109878 -1.35284e-12)
(13.873 0.104558 7.78985e-14)
(13.5979 0.0994748 5.24549e-12)
(13.3304 0.0946252 3.26894e-12)
(13.0705 0.0900055 3.06008e-12)
(12.8179 0.0856076 8.64416e-13)
(12.5726 0.0814248 4.55714e-13)
(12.3343 0.0774478 2.26969e-12)
(12.1029 0.0736673 2.05754e-12)
(11.8783 0.070075 1.62604e-12)
(11.6602 0.0666612 8.07749e-13)
(11.4485 0.063421 -7.06677e-12)
(11.2429 0.0603464 -7.94954e-12)
(11.0434 0.0574264 -1.07063e-13)
(10.8497 0.0546558 1.32647e-12)
(10.6616 0.0520272 2.1611e-12)
(10.479 0.0495334 3.11863e-12)
(10.3017 0.0471679 4.77885e-12)
(10.1295 0.044921 3.69887e-12)
(9.96236 0.0427879 2.30373e-12)
(9.79999 0.0407643 2.22392e-14)
(9.64228 0.0388434 2.25118e-12)
(9.48907 0.0370193 1.05002e-11)
(9.34023 0.0352865 5.34366e-12)
(9.19561 0.0336411 9.32097e-13)
(9.05508 0.03208 2.6169e-12)
(8.91849 0.0305958 1.56311e-12)
(8.78571 0.0291849 6.77547e-13)
(8.65664 0.0278461 -9.41992e-12)
(8.53113 0.026573 -3.31963e-12)
(8.40909 0.0253634 -2.08691e-11)
(8.29038 0.024214 -9.13276e-12)
(8.1749 0.0231201 -3.83101e-12)
(8.06255 0.022081 4.40408e-13)
(7.95323 0.0210921 -7.78856e-12)
(7.84684 0.0201516 -2.54125e-12)
(7.74327 0.0192579 -2.32737e-12)
(7.64245 0.0184071 -1.39285e-11)
(7.54428 0.0175985 -5.22452e-12)
(7.44869 0.0168292 1.05508e-13)
(7.35558 0.016097 -1.28249e-14)
(7.26489 0.0154005 -3.15278e-12)
(7.17653 0.014738 9.22239e-13)
(7.09043 0.0141077 -9.55031e-13)
(7.00654 0.0135074 1.55427e-12)
(6.92477 0.0129356 -2.20825e-14)
(6.84506 0.0123905 -7.50904e-13)
(6.76735 0.0118708 -4.01448e-12)
(6.69158 0.0113742 -2.24828e-12)
(6.61769 0.0108997 -1.14459e-12)
(6.54562 0.0104465 8.49315e-12)
(6.47532 0.0100121 -5.38878e-12)
(6.40674 0.00959603 -1.00415e-12)
(6.33983 0.00919618 -9.23209e-12)
(6.27455 0.00880961 1.59382e-11)
(6.21091 0.00843609 4.1958e-12)
(6.14887 0.00806174 3.68024e-12)
(6.08863 0.00768775 1.86584e-12)
(6.03013 0.00725292 8.98934e-13)
(5.97464 0.00679435 -4.01424e-12)
(5.92137 0.0059698 -5.3843e-13)
(5.87779 0.00508856 4.79789e-12)
(5.83703 0.00246644 -7.34795e-12)
(28.6038 0.0292337 -1.0513e-16)
(28.5788 0.043614 -1.88545e-15)
(28.5407 0.0467286 -5.97004e-15)
(28.5003 0.048392 -1.62786e-14)
(28.4599 0.0497517 -1.16748e-13)
(28.4186 0.0501282 -1.30046e-13)
(28.3763 0.0500458 -1.84155e-13)
(28.3329 0.0499622 -2.31143e-13)
(28.2878 0.0499831 -4.39358e-13)
(28.2405 0.0501766 -5.56318e-13)
(28.1903 0.0506218 -6.21704e-13)
(28.1364 0.0513881 -6.60849e-13)
(28.0775 0.0525408 -6.86801e-13)
(28.0126 0.0541492 -6.77026e-13)
(27.9403 0.056279 9.92365e-13)
(27.8591 0.0590003 8.15595e-13)
(27.7675 0.0624028 3.63121e-13)
(27.664 0.0665761 1.95036e-13)
(27.5471 0.0715828 1.77357e-13)
(27.4157 0.0774582 2.431e-13)
(27.2688 0.0842157 7.69201e-13)
(27.1061 0.0918261 9.85946e-13)
(26.9276 0.100215 5.57207e-13)
(26.734 0.109281 7.15667e-14)
(26.526 0.11889 -1.25733e-13)
(26.3053 0.128871 3.61375e-13)
(26.0733 0.139051 5.29376e-13)
(25.832 0.149265 6.37323e-13)
(25.5829 0.159362 7.6631e-13)
(25.3279 0.169213 8.69202e-13)
(25.0682 0.178723 9.87611e-13)
(24.8051 0.187827 1.81115e-12)
(24.5395 0.196474 2.03158e-12)
(24.2721 0.204633 1.96816e-12)
(24.0034 0.212289 1.25642e-12)
(23.7337 0.219446 2.64635e-12)
(23.4631 0.226111 2.28734e-12)
(23.1914 0.232286 1.87769e-12)
(22.9183 0.237965 1.46982e-12)
(22.6435 0.243123 -1.55161e-12)
(22.3663 0.247711 -1.10634e-12)
(22.0862 0.251656 -3.20073e-12)
(21.8024 0.254866 -1.79703e-12)
(21.5143 0.257243 -1.70052e-12)
(21.2211 0.25869 -3.4854e-12)
(20.9224 0.259128 -1.21242e-12)
(20.6179 0.258509 -2.49157e-12)
(20.3075 0.256818 -2.14708e-12)
(19.9914 0.254081 -1.9361e-12)
(19.6702 0.250355 -1.47892e-12)
(19.3445 0.245728 -1.16102e-12)
(19.0152 0.24032 -7.00806e-13)
(18.6832 0.234248 -3.23113e-13)
(18.3496 0.227632 -2.73078e-13)
(18.0155 0.220596 -9.20537e-13)
(17.6817 0.213256 -9.8033e-13)
(17.3494 0.205704 -1.41122e-12)
(17.0195 0.198028 -8.18414e-13)
(16.6926 0.190306 -1.53423e-13)
(16.3696 0.182609 6.05733e-12)
(16.0511 0.174995 4.23663e-12)
(15.7376 0.167508 3.00222e-12)
(15.4296 0.160187 -3.94731e-12)
(15.1273 0.153061 -2.87379e-12)
(14.8312 0.146143 -3.95534e-12)
(14.5414 0.139448 -2.45195e-12)
(14.258 0.132987 5.98532e-14)
(13.9813 0.126762 -1.3252e-12)
(13.7112 0.120781 -1.46173e-13)
(13.4479 0.115047 4.62207e-12)
(13.1913 0.109561 3.57692e-12)
(12.9413 0.104321 3.15208e-12)
(12.6979 0.0993206 1.6971e-12)
(12.4611 0.0945535 1.17566e-12)
(12.2306 0.0900119 3.31835e-12)
(12.0064 0.0856869 2.50261e-12)
(11.7884 0.0815697 1.89937e-12)
(11.5765 0.0776502 9.96712e-13)
(11.3704 0.0739244 -8.0377e-12)
(11.1701 0.070384 -8.44733e-12)
(10.9754 0.0670171 -5.93492e-13)
(10.7862 0.0638192 1.2391e-12)
(10.6023 0.0607814 2.90721e-12)
(10.4235 0.0578956 2.95321e-12)
(10.2498 0.0551562 4.09801e-12)
(10.0809 0.0525518 3.50422e-12)
(9.91682 0.0500768 2.18195e-12)
(9.7573 0.0477271 5.97743e-13)
(9.60224 0.0454949 2.77083e-12)
(9.4515 0.0433733 1.0328e-11)
(9.30496 0.0413568 5.48209e-12)
(9.16248 0.0394411 1.76142e-12)
(9.02394 0.0376219 2.32352e-12)
(8.88921 0.0358911 1.56713e-12)
(8.75817 0.0342455 7.95815e-13)
(8.63071 0.0326828 -1.01854e-11)
(8.50671 0.031196 -3.01127e-12)
(8.38607 0.0297826 -2.0504e-11)
(8.26869 0.0284393 -1.03648e-11)
(8.15444 0.0271602 -4.96367e-12)
(8.04325 0.0259447 -1.16528e-12)
(7.93501 0.0247874 -7.59503e-12)
(7.82962 0.0236863 -3.32823e-12)
(7.72701 0.0226397 -2.71666e-12)
(7.62708 0.0216431 -1.37548e-11)
(7.52975 0.0206953 -5.1461e-12)
(7.43493 0.0197936 1.19964e-12)
(7.34256 0.0189352 1.66542e-14)
(7.25256 0.0181182 -2.34391e-12)
(7.16485 0.017341 2.92964e-13)
(7.07937 0.0166015 3.6061e-13)
(6.99605 0.0158969 2.66946e-12)
(6.91482 0.0152255 2.60793e-14)
(6.83562 0.0145854 -9.16955e-13)
(6.75839 0.0139751 -5.081e-12)
(6.68307 0.0133917 -2.5717e-12)
(6.60961 0.0128342 -1.32335e-12)
(6.53794 0.0123017 8.17481e-12)
(6.46802 0.0117911 -5.66004e-12)
(6.3998 0.011302 -8.56755e-13)
(6.33323 0.010832 -7.12307e-12)
(6.26828 0.0103776 1.62023e-11)
(6.20494 0.00993822 3.52952e-12)
(6.14318 0.00949788 4.25491e-12)
(6.08322 0.00905787 2.12622e-12)