TITLE = "A462 in scania_D_lift12 Velocity vectors [mm] [m/s]"
VARIABLES = "x","y","z","u","v","w","VMag"
ZONE T="A462 in scania_D_lift12", I=57, J=58, F=POINT
DT=( SINGLE, SINGLE, SINGLE, SINGLE, SINGLE, SINGLE, SINGLE )
-5.93e+001  6.15e+001  0.00e+000  0.00e+000  0.00e+000  0.00e+000  0.00e+000  
-5.72e+001  6.15e+001  0.00e+000  0.00e+000  0.00e+000  0.00e+000  0.00e+000  
-5.51e+001  6.15e+001  0.00e+000  0.00e+000  0.00e+000  0.00e+000  0.00e+000  
-5.29e+001  6.15e+001  0.00e+000  0.00e+000  0.00e+000  0.00e+000  0.00e+000  
-5.08e+001  6.15e+001  0.00e+000  0.00e+000  0.00e+000  0.00e+000  0.00e+000  
-4.87e+001  6.15e+001  0.00e+000  0.00e+000  0.00e+000  0.00e+000  0.00e+000  
-4.65e+001  6.15e+001  0.00e+000  0.00e+000  0.00e+000  0.00e+000  0.00e+000  
-4.44e+001  6.15e+001  0.00e+000  0.00e+000  0.00e+000  0.00e+000  0.00e+000  
-4.23e+001  6.15e+001  0.00e+000  0.00e+000  0.00e+000  0.00e+000  0.00e+000  
-4.01e+001  6.15e+001  0.00e+000  0.00e+000  0.00e+000  0.00e+000  0.00e+000  
-3.80e+001  6.15e+001  0.00e+000  0.00e+000  0.00e+000  0.00e+000  0.00e+000  
-3.59e+001  6.15e+001  0.00e+000  0.00e+000  0.00e+000  0.00e+000  0.00e+000  
-3.37e+001  6.15e+001  0.00e+000  0.00e+000  0.00e+000  0.00e+000  0.00e+000  
-3.16e+001  6.15e+001  0.00e+000  0.00e+000  0.00e+000  0.00e+000  0.00e+000  
-2.95e+001  6.15e+001  0.00e+000  0.00e+000  0.00e+000  0.00e+000  0.00e+000  
-2.73e+001  6.15e+001  0.00e+000  0.00e+000  0.00e+000  0.00e+000  0.00e+000  
-2.52e+001  6.15e+001  0.00e+000  0.00e+000  0.00e+000  0.00e+000  0.00e+000  
-2.31e+001  6.15e+001  0.00e+000  0.00e+000  0.00e+000  0.00e+000  0.00e+000  
-2.09e+001  6.15e+001  0.00e+000  0.00e+000  0.00e+000  0.00e+000  0.00e+000  
-1.88e+001  6.15e+001  0.00e+000  0.00e+000  0.00e+000  0.00e+000  0.00e+000  
-1.67e+001  6.15e+001  0.00e+000  0.00e+000  0.00e+000  0.00e+000  0.00e+000  
-1.45e+001  6.15e+001  0.00e+000  0.00e+000  0.00e+000  0.00e+000  0.00e+000  
-1.24e+001  6.15e+001  0.00e+000  3.56e+000  3.12e+000  2.70e+000  5.45e+000  
-1.03e+001  6.15e+001  0.00e+000  5.34e+000  3.84e+000  3.90e+000  7.64e+000  
-8.13e+000  6.15e+001  0.00e+000  7.11e+000  3.84e+000  3.82e+000  8.94e+000  
-6.00e+000  6.15e+001  0.00e+000  9.06e+000  5.96e+000  6.48e+000  1.26e+001  
-3.87e+000  6.15e+001  0.00e+000  5.35e+000  3.54e+000  3.16e+000  7.16e+000  
-1.73e+000  6.15e+001  0.00e+000  1.04e+000  1.00e+000  -2.44e+000  2.84e+000  
4.00e-001  6.15e+001  0.00e+000  5.23e-001  1.20e-001  -8.69e-001  1.02e+000  
2.53e+000  6.15e+001  0.00e+000  -2.56e-001  -8.78e-001  6.31e-001  1.11e+000  
4.67e+000  6.15e+001  0.00e+000  3.36e+000  3.87e+000  7.37e+000  8.97e+000  
6.80e+000  6.15e+001  0.00e+000  4.14e+000  4.54e+000  8.20e+000  1.02e+001  
8.93e+000  6.15e+001  0.00e+000  -4.35e-001  -8.83e-001  2.02e-001  1.00e+000  
1.11e+001  6.15e+001  0.00e+000  0.00e+000  0.00e+000  0.00e+000  0.00e+000  
1.32e+001  6.15e+001  0.00e+000  0.00e+000  0.00e+000  0.00e+000  0.00e+000  
1.53e+001  6.15e+001  0.00e+000  0.00e+000  0.00e+000  0.00e+000  0.00e+000  
1.75e+001  6.15e+001  0.00e+000  0.00e+000  0.00e+000  0.00e+000  0.00e+000  
1.96e+001  6.15e+001  0.00e+000  0.00e+000  0.00e+000  0.00e+000  0.00e+000  
2.17e+001  6.15e+001  0.00e+000  0.00e+000  0.00e+000  0.00e+000  0.00e+000  
2.39e+001  6.15e+001  0.00e+000  0.00e+000  0.00e+000  0.00e+000  0.00e+000  
2.60e+001  6.15e+001  0.00e+000  0.00e+000  0.00e+000  0.00e+000  0.00e+000  
2.81e+001  6.15e+001  0.00e+000  0.00e+000  0.00e+000  0.00e+000  0.00e+000  
3.03e+001  6.15e+001  0.00e+000  0.00e+000  0.00e+000  0.00e+000  0.00e+000  
3.24e+001  6.15e+001  0.00e+000  0.00e+000  0.00e+000  0.00e+000  0.00e+000  
3.45e+001  6.15e+001  0.00e+000  0.00e+000  0.00e+000  0.00e+000  0.00e+000  
3.67e+001  6.15e+001  0.00e+000  0.00e+000  0.00e+000  0.00e+000  0.00e+000  
3.88e+001  6.15e+001  0.00e+000  0.00e+000  0.00e+000  0.00e+000  0.00e+000  
4.09e+001  6.15e+001  0.00e+000  0.00e+000  0.00e+000  0.00e+000  0.00e+000  
4.31e+001  6.15e+001  0.00e+000  0.00e+000  0.00e+000  0.00e+000  0.00e+000  
4.52e+001  6.15e+001  0.00e+000  0.00e+000  0.00e+000  0.00e+000  0.00e+000  
4.73e+001  6.15e+001  0.00e+000  0.00e+000  0.00e+000  0.00e+000  0.00e+000  
4.95e+001  6.15e+001  0.00e+000  0.00e+000  0.00e+000  0.00e+000  0.00e+000  
5.16e+001  6.15e+001  0.00e+000  0.00e+000  0.00e+000  0.00e+000  0.00e+000  
5.37e+001  6.15e+001  0.00e+000  0.00e+000  0.00e+000  0.00e+000  0.00e+000  
5.59e+001  6.15e+001  0.00e+000  0.00e+000  0.00e+000  0.00e+000  0.00e+000  
5.80e+001  6.15e+001  0.00e+000  0.00e+000  0.00e+000  0.00e+000  0.00e+000  
6.01e+001  6.15e+001  0.00e+000  0.00e+000  0.00e+000  0.00e+000  0.00e+000  
-5.93e+001  5.93e+001  0.00e+000  0.00e+000  0.00e+000  0.00e+000  0.00e+000  
-5.72e+001  5.93e+001  0.00e+000  0.00e+000  0.00e+000  0.00e+000  0.00e+000  
-5.51e+001  5.93e+001  0.00e+000  0.00e+000  0.00e+000  0.00e+000  0.00e+000  
-5.29e+001  5.93e+001  0.00e+000  0.00e+000  0.00e+000  0.00e+000  0.00e+000  
-5.08e+001  5.93e+001  0.00e+000  0.00e+000  0.00e+000  0.00e+000  0.00e+000  
-4.87e+001  5.93e+001  0.00e+000  0.00e+000  0.00e+000  0.00e+000  0.00e+000  
-4.65e+001  5.93e+001  0.00e+000  0.00e+000  0.00e+000  0.00e+000  0.00e+000  
-4.44e+001  5.93e+001  0.00e+000  0.00e+000  0.00e+000  0.00e+000  0.00e+000  
-4.23e+001  5.93e+001  0.00e+000  0.00e+000  0.00e+000  0.00e+000  0.00e+000  
-4.01e+001  5.93e+001  0.00e+000  0.00e+000  0.00e+000  0.00e+000  0.00e+000  
-3.80e+001  5.93e+001  0.00e+000  0.00e+000  0.00e+000  0.00e+000  0.00e+000  
-3.59e+001  5.93e+001  0.00e+000  0.00e+000  0.00e+000  0.00e+000  0.00e+000  
-3.37e+001  5.93e+001  0.00e+000  0.00e+000  0.00e+000  0.00e+000  0.00e+000  
-3.16e+001  5.93e+001  0.00e+000  0.00e+000  0.00e+000  0.00e+000  0.00e+000  
-2.95e+001  5.93e+001  0.00e+000  0.00e+000  0.00e+000  0.00e+000  0.00e+000  
-2.73e+001  5.93e+001  0.00e+000  0.00e+000  0.00e+000  0.00e+000  0.00e+000  
-2.52e+001  5.93e+001  0.00e+000  0.00e+000  0.00e+000  0.00e+000  0.00e+000  
-2.31e+001  5.93e+001  0.00e+000  0.00e+000  0.00e+000  0.00e+000  0.00e+000  
-2.09e+001  5.93e+001  0.00e+000  3.00e+000  6.84e-002  -3.18e-001  3.02e+000  
-1.88e+001  5.93e+001  0.00e+000  2.84e+000  1.34e+000  4.69e-001  3.18e+000  
-1.67e+001  5.93e+001  0.00e+000  5.68e+000  3.98e+000  5.13e+000  8.63e+000  
-1.45e+001  5.93e+001  0.00e+000  7.55e+000  5.69e+000  7.26e+000  1.19e+001  
-1.24e+001  5.93e+001  0.00e+000  6.20e+000  4.87e+000  5.13e+000  9.41e+000  
-1.03e+001  5.93e+001  0.00e+000  6.60e+000  4.73e+000  4.39e+000  9.23e+000  
-8.13e+000  5.93e+001  0.00e+000  7.40e+000  3.03e+000  2.09e+000  8.26e+000  
-6.00e+000  5.93e+001  0.00e+000  6.34e+000  1.68e+000  -2.35e-001  6.56e+000  
-3.87e+000  5.93e+001  0.00e+000  7.41e+000  5.37e+000  6.70e+000  1.13e+001  
-1.73e+000  5.93e+001  0.00e+000  3.81e+000  2.89e+000  2.25e+000  5.29e+000  
4.00e-001  5.93e+001  0.00e+000  1.70e+000  -4.18e-001  -2.74e-001  1.77e+000  
2.53e+000  5.93e+001  0.00e+000  9.97e-001  -1.59e+000  1.38e+000  2.33e+000  
4.67e+000  5.93e+001  0.00e+000  3.60e+000  1.11e+000  4.73e+000  6.04e+000  
6.80e+000  5.93e+001  0.00e+000  4.04e+000  -6.43e-001  2.45e+000  4.77e+000  
8.93e+000  5.93e+001  0.00e+000  8.76e+000  1.19e-001  2.90e+000  9.23e+000  
1.11e+001  5.93e+001  0.00e+000  7.74e+000  1.75e+000  4.53e+000  9.13e+000  
1.32e+001  5.93e+001  0.00e+000  8.43e+000  2.01e+000  4.40e+000  9.72e+000  
1.53e+001  5.93e+001  0.00e+000  7.58e+000  2.55e+000  4.87e+000  9.37e+000  
1.75e+001  5.93e+001  0.00e+000  7.73e+000  4.01e+000  6.86e+000  1.11e+001  
1.96e+001  5.93e+001  0.00e+000  0.00e+000  0.00e+000  0.00e+000  0.00e+000  
2.17e+001  5.93e+001  0.00e+000  0.00e+000  0.00e+000  0.00e+000  0.00e+000  
2.39e+001  5.93e+001  0.00e+000  0.00e+000  0.00e+000  0.00e+000  0.00e+000  
2.60e+001  5.93e+001  0.00e+000  0.00e+000  0.00e+000  0.00e+000  0.00e+000  
2.81e+001  5.93e+001  0.00e+000  0.00e+000  0.00e+000  0.00e+000  0.00e+000  
3.03e+001  5.93e+001  0.00e+000  0.00e+000  0.00e+000  0.00e+000  0.00e+000  
3.24e+001  5.93e+001  0.00e+000  0.00e+000  0.00e+000  0.00e+000  0.00e+000  
3.45e+001  5.93e+001  0.00e+000  0.00e+000  0.00e+000  0.00e+000  0.00e+000  
3.67e+001  5.93e+001  0.00e+000  0.00e+000  0.00e+000  0.00e+000  0.00e+000  
3.88e+001  5.93e+001  0.00e+000  0.00e+000  0.00e+000  0.00e+000  0.00e+000  
4.09e+001  5.93e+001  0.00e+000  0.00e+000  0.00e+000  0.00e+000  0.00e+000  
4.31e+001  5.93e+001  0.00e+000  0.00e+000  0.00e+000  0.00e+000  0.00e+000  
4.52e+001  5.93e+001  0.00e+000  0.00e+000  0.00e+000  0.00e+000  0.00e+000  
4.73e+001  5.93e+001  0.00e+000  0.00e+000  0.00e+000  0.00e+000  0.00e+000  
4.95e+001  5.93e+001  0.00e+000  0.00e+000  0.00e+000  0.00e+000  0.00e+000  
5.16e+001  5.93e+001  0.00e+000  0.00e+000  0.00e+000  0.00e+000  0.00e+000  
5.37e+001  5.93e+001  0.00e+000  0.00e+000  0.00e+000  0.00e+000  0.00e+000  
5.59e+001  5.93e+001  0.00e+000  0.00e+000  0.00e+000  0.00e+000  0.00e+000  
5.80e+001  5.93e+001  0.00e+000  0.00e+000  0.00e+000  0.00e+000  0.00e+000  
6.01e+001  5.93e+001  0.00e+000  0.00e+000  0.00e+000  0.00e+000  0.00e+000  
-5.93e+001  5.72e+001  0.00e+000  0.00e+000  0.00e+000  0.00e+000  0.00e+000  
-5.72e+001  5.72e+001  0.00e+000  0.00e+000  0.00e+000  0.00e+000  0.00e+000  
-5.51e+001  5.72e+001  0.00e+000  0.00e+000  0.00e+000  0.00e+000  0.00e+000  
-5.29e+001  5.72e+001  0.00e+000  0.00e+000  0.00e+000  0.00e+000  0.00e+000  
-5.08e+001  5.72e+001  0.00e+000  0.00e+000  0.00e+000  0.00e+000  0.00e+000  
-4.87e+001  5.72e+001  0.00e+000  0.00e+000  0.00e+000  0.00e+000  0.00e+000  
-4.65e+001  5.72e+001  0.00e+000  0.00e+000  0.00e+000  0.00e+000  0.00e+000  
-4.44e+001  5.72e+001  0.00e+000  0.00e+000  0.00e+000  0.00e+000  0.00e+000  
-4.23e+001  5.72e+001  0.00e+000  0.00e+000  0.00e+000  0.00e+000  0.00e+000  
-4.01e+001  5.72e+001  0.00e+000  0.00e+000  0.00e+000  0.00e+000  0.00e+000  
-3.80e+001  5.72e+001  0.00e+000  0.00e+000  0.00e+000  0.00e+000  0.00e+000  
-3.59e+001  5.72e+001  0.00e+000  0.00e+000  0.00e+000  0.00e+000  0.00e+000  
-3.37e+001  5.72e+001  0.00e+000  0.00e+000  0.00e+000  0.00e+000  0.00e+000  
-3.16e+001  5.72e+001  0.00e+000  0.00e+000  0.00e+000  0.00e+000  0.00e+000  
-2.95e+001  5.72e+001  0.00e+000  0.00e+000  0.00e+000  0.00e+000  0.00e+000  
-2.73e+001  5.72e+001  0.00e+000  -7.63e-001  -9.69e-002  3.50e-001  8.45e-001  
-2.52e+001  5.72e+001  0.00e+000  4.83e+000  6.47e+000  1.09e+001  1.36e+001  
-2.31e+001  5.72e+001  0.00e+000  1.07e+000  -2.09e-001  1.16e+000  1.59e+000  
-2.09e+001  5.72e+001  0.00e+000  2.99e+000  7.28e-001  7.54e-001  3.17e+000  
-1.88e+001  5.72e+001  0.00e+000  1.30e+000  1.02e+000  -7.67e-001  1.82e+000  
-1.67e+001  5.72e+001  0.00e+000  7.35e+000  5.81e+000  6.86e+000  1.16e+001  
-1.45e+001  5.72e+001  0.00e+000  7.87e+000  7.27e+000  1.00e+001  1.47e+001  
-1.24e+001  5.72e+001  0.00e+000  8.01e+000  4.87e+000  6.35e+000  1.13e+001  
-1.03e+001  5.72e+001  0.00e+000  1.12e+001  2.88e+000  3.45e+000  1.20e+001  
-8.13e+000  5.72e+001  0.00e+000  1.11e+001  2.30e+000  9.14e-001  1.14e+001  
-6.00e+000  5.72e+001  0.00e+000  6.98e+000  -5.19e-001  -4.03e-001  7.01e+000  
-3.87e+000  5.72e+001  0.00e+000  4.86e+000  -3.44e-001  1.60e+000  5.13e+000  
-1.73e+000  5.72e+001  0.00e+000  7.04e+000  6.83e+000  6.42e+000  1.17e+001  
4.00e-001  5.72e+001  0.00e+000  1.45e+001  -5.88e+000  1.07e+001  1.89e+001  
2.53e+000  5.72e+001  0.00e+000  1.21e+001  -6.70e+000  1.18e+001  1.82e+001  
4.67e+000  5.72e+001  0.00e+000  1.24e+001  -6.57e+000  1.16e+001  1.82e+001  
6.80e+000  5.72e+001  0.00e+000  1.44e+001  -7.26e+000  1.00e+001  1.90e+001  
8.93e+000  5.72e+001  0.00e+000  1.63e+001  -7.00e+000  8.58e+000  1.97e+001  
1.11e+001  5.72e+001  0.00e+000  1.69e+001  -3.88e+000  1.32e+001  2.18e+001  
1.32e+001  5.72e+001  0.00e+000  1.65e+001  -4.60e+000  1.15e+001  2.06e+001  
1.53e+001  5.72e+001  0.00e+000  7.85e+000  5.98e-001  1.43e+000  8.01e+000  
1.75e+001  5.72e+001  0.00e+000  8.36e+000  4.12e+000  6.30e+000  1.12e+001  
1.96e+001  5.72e+001  0.00e+000  7.01e+000  1.02e+001  1.60e+001  2.02e+001  
2.17e+001  5.72e+001  0.00e+000  6.57e+000  1.07e+001  1.73e+001  2.14e+001  
2.39e+001  5.72e+001  0.00e+000  6.44e+000  8.42e+000  1.37e+001  1.73e+001  
2.60e+001  5.72e+001  0.00e+000  0.00e+000  0.00e+000  0.00e+000  0.00e+000  
2.81e+001  5.72e+001  0.00e+000  0.00e+000  0.00e+000  0.00e+000  0.00e+000  
3.03e+001  5.72e+001  0.00e+000  0.00e+000  0.00e+000  0.00e+000  0.00e+000  
3.24e+001  5.72e+001  0.00e+000  0.00e+000  0.00e+000  0.00e+000  0.00e+000  
3.45e+001  5.72e+001  0.00e+000  0.00e+000  0.00e+000  0.00e+000  0.00e+000  
3.67e+001  5.72e+001  0.00e+000  0.00e+000  0.00e+000  0.00e+000  0.00e+000  
3.88e+001  5.72e+001  0.00e+000  0.00e+000  0.00e+000  0.00e+000  0.00e+000  
4.09e+001  5.72e+001  0.00e+000  0.00e+000  0.00e+000  0.00e+000  0.00e+000  
4.31e+001  5.72e+001  0.00e+000  0.00e+000  0.00e+000  0.00e+000  0.00e+000  
4.52e+001  5.72e+001  0.00e+000  0.00e+000  0.00e+000  0.00e+000  0.00e+000  
4.73e+001  5.72e+001  0.00e+000  0.00e+000  0.00e+000  0.00e+000  0.00e+000  
4.95e+001  5.72e+001  0.00e+000  0.00e+000  0.00e+000  0.00e+000  0.00e+000  
5.16e+001  5.72e+001  0.00e+000  0.00e+000  0.00e+000  0.00e+000  0.00e+000  
5.37e+001  5.72e+001  0.00e+000  0.00e+000  0.00e+000  0.00e+000  0.00e+000  
5.59e+001  5.72e+001  0.00e+000  0.00e+000  0.00e+000  0.00e+000  0.00e+000  
5.80e+001  5.72e+001  0.00e+000  0.00e+000  0.00e+000  0.00e+000  0.00e+000  
6.01e+001  5.72e+001  0.00e+000  0.00e+000  0.00e+000  0.00e+000  0.00e+000  
-5.93e+001  5.51e+001  0.00e+000  0.00e+000  0.00e+000  0.00e+000  0.00e+000  
-5.72e+001  5.51e+001  0.00e+000  0.00e+000  0.00e+000  0.00e+000  0.00e+000  
-5.51e+001  5.51e+001  0.00e+000  0.00e+000  0.00e+000  0.00e+000  0.00e+000  
-5.29e+001  5.51e+001  0.00e+000  0.00e+000  0.00e+000  0.00e+000  0.00e+000  
-5.08e+001  5.51e+001  0.00e+000  0.00e+000  0.00e+000  0.00e+000  0.00e+000  
-4.87e+001  5.51e+001  0.00e+000  0.00e+000  0.00e+000  0.00e+000  0.00e+000  
-4.65e+001  5.51e+001  0.00e+000  0.00e+000  0.00e+000  0.00e+000  0.00e+000  
-4.44e+001  5.51e+001  0.00e+000  0.00e+000  0.00e+000  0.00e+000  0.00e+000  
-4.23e+001  5.51e+001  0.00e+000  0.00e+000  0.00e+000  0.00e+000  0.00e+000  
-4.01e+001  5.51e+001  0.00e+000  0.00e+000  0.00e+000  0.00e+000  0.00e+000  
-3.80e+001  5.51e+001  0.00e+000  0.00e+000  0.00e+000  0.00e+000  0.00e+000  
-3.59e+001  5.51e+001  0.00e+000  0.00e+000  0.00e+000  0.00e+000  0.00e+000  
-3.37e+001  5.51e+001  0.00e+000  0.00e+000  0.00e+000  0.00e+000  0.00e+000  
-3.16e+001  5.51e+001  0.00e+000  7.18e+000  2.16e+001  3.66e+001  4.31e+001  
-2.95e+001  5.51e+001  0.00e+000  5.84e+000  1.63e+001  2.80e+001  3.29e+001  
-2.73e+001  5.51e+001  0.00e+000  6.64e+000  1.29e+001  2.26e+001  2.68e+001  
-2.52e+001  5.51e+001  0.00e+000  1.26e+001  1.85e+001  3.11e+001  3.83e+001  
-2.31e+001  5.51e+001  0.00e+000  1.06e+001  9.01e+000  1.74e+001  2.23e+001  
-2.09e+001  5.51e+001  0.00e+000  1.31e+001  1.03e+001  1.73e+001  2.40e+001  
-1.88e+001  5.51e+001  0.00e+000  1.46e+001  7.34e+000  9.98e+000  1.92e+001  
-1.67e+001  5.51e+001  0.00e+000  1.50e+001  7.77e+000  7.97e+000  1.87e+001  
-1.45e+001  5.51e+001  0.00e+000  1.53e+001  5.46e+000  1.00e+001  1.91e+001  
-1.24e+001  5.51e+001  0.00e+000  1.67e+001  2.64e+000  9.65e+000  1.95e+001  
-1.03e+001  5.51e+001  0.00e+000  1.71e+001  2.54e+000  3.09e+000  1.76e+001  
-8.13e+000  5.51e+001  0.00e+000  1.73e+001  2.92e+000  -1.95e+000  1.76e+001  
-6.00e+000  5.51e+001  0.00e+000  1.11e+001  -2.26e-001  -3.11e+000  1.15e+001  
-3.87e+000  5.51e+001  0.00e+000  8.70e+000  -2.10e+000  -3.52e+000  9.62e+000  
-1.73e+000  5.51e+001  0.00e+000  1.27e+001  -8.67e+000  -1.79e+000  1.55e+001  
4.00e-001  5.51e+001  0.00e+000  1.40e+001  -1.05e+001  1.58e-001  1.75e+001  
2.53e+000  5.51e+001  0.00e+000  1.48e+001  -9.45e+000  5.29e+000  1.83e+001  
4.67e+000  5.51e+001  0.00e+000  1.46e+001  -9.42e+000  5.79e+000  1.83e+001  
6.80e+000  5.51e+001  0.00e+000  1.50e+001  -9.53e+000  1.01e+001  2.05e+001  
8.93e+000  5.51e+001  0.00e+000  1.22e+001  -5.25e+000  8.51e+000  1.58e+001  
1.11e+001  5.51e+001  0.00e+000  1.57e+001  -7.37e+000  1.32e+001  2.18e+001  
1.32e+001  5.51e+001  0.00e+000  1.49e+001  -8.42e+000  1.05e+001  2.01e+001  
1.53e+001  5.51e+001  0.00e+000  1.43e+001  -1.11e+001  8.51e+000  2.00e+001  
1.75e+001  5.51e+001  0.00e+000  9.50e+000  -3.00e+000  7.11e-001  9.99e+000  
1.96e+001  5.51e+001  0.00e+000  7.65e+000  3.77e+000  7.96e+000  1.17e+001  
2.17e+001  5.51e+001  0.00e+000  7.48e+000  6.28e+000  1.31e+001  1.63e+001  
2.39e+001  5.51e+001  0.00e+000  7.45e+000  -7.96e-001  1.41e+000  7.62e+000  
2.60e+001  5.51e+001  0.00e+000  8.57e+000  -1.74e+000  1.93e-001  8.74e+000  
2.81e+001  5.51e+001  0.00e+000  3.24e+000  -2.30e+000  -6.40e-002  3.97e+000  
3.03e+001  5.51e+001  0.00e+000  0.00e+000  0.00e+000  0.00e+000  0.00e+000  
3.24e+001  5.51e+001  0.00e+000  0.00e+000  0.00e+000  0.00e+000  0.00e+000  
3.45e+001  5.51e+001  0.00e+000  0.00e+000  0.00e+000  0.00e+000  0.00e+000  
3.67e+001  5.51e+001  0.00e+000  0.00e+000  0.00e+000  0.00e+000  0.00e+000  
3.88e+001  5.51e+001  0.00e+000  0.00e+000  0.00e+000  0.00e+000  0.00e+000  
4.09e+001  5.51e+001  0.00e+000  0.00e+000  0.00e+000  0.00e+000  0.00e+000  
4.31e+001  5.51e+001  0.00e+000  0.00e+000  0.00e+000  0.00e+000  0.00e+000  
4.52e+001  5.51e+001  0.00e+000  0.00e+000  0.00e+000  0.00e+000  0.00e+000  
4.73e+001  5.51e+001  0.00e+000  0.00e+000  0.00e+000  0.00e+000  0.00e+000  
4.95e+001  5.51e+001  0.00e+000  0.00e+000  0.00e+000  0.00e+000  0.00e+000  
5.16e+001  5.51e+001  0.00e+000  0.00e+000  0.00e+000  0.00e+000  0.00e+000  
5.37e+001  5.51e+001  0.00e+000  0.00e+000  0.00e+000  0.00e+000  0.00e+000  
5.59e+001  5.51e+001  0.00e+000  0.00e+000  0.00e+000  0.00e+000  0.00e+000  
5.80e+001  5.51e+001  0.00e+000  0.00e+000  0.00e+000  0.00e+000  0.00e+000  
6.01e+001  5.51e+001  0.00e+000  0.00e+000  0.00e+000  0.00e+000  0.00e+000  
-5.93e+001  5.29e+001  0.00e+000  0.00e+000  0.00e+000  0.00e+000  0.00e+000  
-5.72e+001  5.29e+001  0.00e+000  0.00e+000  0.00e+000  0.00e+000  0.00e+000  
-5.51e+001  5.29e+001  0.00e+000  0.00e+000  0.00e+000  0.00e+000  0.00e+000  
-5.29e+001  5.29e+001  0.00e+000  0.00e+000  0.00e+000  0.00e+000  0.00e+000  
-5.08e+001  5.29e+001  0.00e+000  0.00e+000  0.00e+000  0.00e+000  0.00e+000  
-4.87e+001  5.29e+001  0.00e+000  0.00e+000  0.00e+000  0.00e+000  0.00e+000  
-4.65e+001  5.29e+001  0.00e+000  0.00e+000  0.00e+000  0.00e+000  0.00e+000  
-4.44e+001  5.29e+001  0.00e+000  0.00e+000  0.00e+000  0.00e+000  0.00e+000  
-4.23e+001  5.29e+001  0.00e+000  0.00e+000  0.00e+000  0.00e+000  0.00e+000  
-4.01e+001  5.29e+001  0.00e+000  0.00e+000  0.00e+000  0.00e+000  0.00e+000  
-3.80e+001  5.29e+001  0.00e+000  0.00e+000  0.00e+000  0.00e+000  0.00e+000  
-3.59e+001  5.29e+001  0.00e+000  0.00e+000  0.00e+000  0.00e+000  0.00e+000  
-3.37e+001  5.29e+001  0.00e+000  7.54e+000  2.77e+001  4.60e+001  5.43e+001  
-3.16e+001  5.29e+001  0.00e+000  8.72e+000  2.75e+001  4.50e+001  5.35e+001  
-2.95e+001  5.29e+001  0.00e+000  5.99e+000  1.84e+001  3.15e+001  3.70e+001  
-2.73e+001  5.29e+001  0.00e+000  8.36e+000  1.64e+001  3.01e+001  3.53e+001  
-2.52e+001  5.29e+001  0.00e+000  7.80e+000  1.69e+001  2.77e+001  3.33e+001  
-2.31e+001  5.29e+001  0.00e+000  8.17e+000  1.42e+001  2.35e+001  2.87e+001  
-2.09e+001  5.29e+001  0.00e+000  1.42e+001  9.87e+000  1.60e+001  2.36e+001  
-1.88e+001  5.29e+001  0.00e+000  1.46e+001  7.57e+000  8.38e+000  1.85e+001  
-1.67e+001  5.29e+001  0.00e+000  1.40e+001  6.75e+000  5.71e+000  1.65e+001  
-1.45e+001  5.29e+001  0.00e+000  1.36e+001  5.72e+000  4.90e+000  1.55e+001  
-1.24e+001  5.29e+001  0.00e+000  1.40e+001  3.89e+000  4.44e+000  1.52e+001  
-1.03e+001  5.29e+001  0.00e+000  1.72e+001  2.54e+000  3.05e+000  1.76e+001  
-8.13e+000  5.29e+001  0.00e+000  1.61e+001  2.39e+000  -2.85e+000  1.65e+001  
-6.00e+000  5.29e+001  0.00e+000  1.56e+001  1.96e+000  -5.79e+000  1.67e+001  
-3.87e+000  5.29e+001  0.00e+000  1.53e+001  1.51e-001  -4.06e+000  1.59e+001  
-1.73e+000  5.29e+001  0.00e+000  1.20e+001  -2.98e+000  -1.93e+000  1.25e+001  
4.00e-001  5.29e+001  0.00e+000  1.30e+001  -9.20e+000  2.44e+000  1.61e+001  
2.53e+000  5.29e+001  0.00e+000  1.26e+001  -1.03e+001  3.12e+000  1.66e+001  
4.67e+000  5.29e+001  0.00e+000  1.22e+001  -8.92e+000  5.77e+000  1.62e+001  
6.80e+000  5.29e+001  0.00e+000  1.22e+001  -7.24e+000  8.09e+000  1.63e+001  
8.93e+000  5.29e+001  0.00e+000  1.22e+001  -3.34e+000  1.10e+001  1.68e+001  
1.11e+001  5.29e+001  0.00e+000  1.27e+001  -4.00e+000  8.03e+000  1.55e+001  
1.32e+001  5.29e+001  0.00e+000  1.21e+001  -6.13e+000  6.65e+000  1.51e+001  
1.53e+001  5.29e+001  0.00e+000  1.27e+001  -9.30e+000  6.04e+000  1.69e+001  
1.75e+001  5.29e+001  0.00e+000  1.32e+001  -1.27e+001  5.27e+000  1.91e+001  
1.96e+001  5.29e+001  0.00e+000  1.44e+001  -1.69e+001  1.16e+001  2.51e+001  
2.17e+001  5.29e+001  0.00e+000  1.56e+001  -1.46e+001  1.08e+001  2.39e+001  
2.39e+001  5.29e+001  0.00e+000  1.40e+001  -1.55e+001  8.57e+000  2.26e+001  
2.60e+001  5.29e+001  0.00e+000  8.34e+000  -5.38e+000  -2.91e+000  1.03e+001  
2.81e+001  5.29e+001  0.00e+000  2.59e+000  -1.79e+000  1.49e+000  3.48e+000  
3.03e+001  5.29e+001  0.00e+000  2.67e-001  -2.23e+000  -1.16e+000  2.52e+000  
3.24e+001  5.29e+001  0.00e+000  5.79e+000  2.57e+000  5.66e+000  8.50e+000  
3.45e+001  5.29e+001  0.00e+000  0.00e+000  0.00e+000  0.00e+000  0.00e+000  
3.67e+001  5.29e+001  0.00e+000  0.00e+000  0.00e+000  0.00e+000  0.00e+000  
3.88e+001  5.29e+001  0.00e+000  0.00e+000  0.00e+000  0.00e+000  0.00e+000  
4.09e+001  5.29e+001  0.00e+000  0.00e+000  0.00e+000  0.00e+000  0.00e+000  
4.31e+001  5.29e+001  0.00e+000  0.00e+000  0.00e+000  0.00e+000  0.00e+000  
4.52e+001  5.29e+001  0.00e+000  0.00e+000  0.00e+000  0.00e+000  0.00e+000  
4.73e+001  5.29e+001  0.00e+000  0.00e+000  0.00e+000  0.00e+000  0.00e+000  
4.95e+001  5.29e+001  0.00e+000  0.00e+000  0.00e+000  0.00e+000  0.00e+000  
5.16e+001  5.29e+001  0.00e+000  0.00e+000  0.00e+000  0.00e+000  0.00e+000  
5.37e+001  5.29e+001  0.00e+000  0.00e+000  0.00e+000  0.00e+000  0.00e+000  
5.59e+001  5.29e+001  0.00e+000  0.00e+000  0.00e+000  0.00e+000  0.00e+000  
5.80e+001  5.29e+001  0.00e+000  0.00e+000  0.00e+000  0.00e+000  0.00e+000  
6.01e+001  5.29e+001  0.00e+000  0.00e+000  0.00e+000  0.00e+000  0.00e+000  
-5.93e+001  5.08e+001  0.00e+000  0.00e+000  0.00e+000  0.00e+000  0.00e+000  
-5.72e+001  5.08e+001  0.00e+000  0.00e+000  0.00e+000  0.00e+000  0.00e+000  
-5.51e+001  5.08e+001  0.00e+000  0.00e+000  0.00e+000  0.00e+000  0.00e+000  
-5.29e+001  5.08e+001  0.00e+000  0.00e+000  0.00e+000  0.00e+000  0.00e+000  
-5.08e+001  5.08e+001  0.00e+000  0.00e+000  0.00e+000  0.00e+000  0.00e+000  
-4.87e+001  5.08e+001  0.00e+000  0.00e+000  0.00e+000  0.00e+000  0.00e+000  
-4.65e+001  5.08e+001  0.00e+000  0.00e+000  0.00e+000  0.00e+000  0.00e+000  
-4.44e+001  5.08e+001  0.00e+000  0.00e+000  0.00e+000  0.00e+000  0.00e+000  
-4.23e+001  5.08e+001  0.00e+000  0.00e+000  0.00e+000  0.00e+000  0.00e+000  
-4.01e+001  5.08e+001  0.00e+000  1.45e+000  -6.29e-001  1.01e+000  1.88e+000  
-3.80e+001  5.08e+001  0.00e+000  5.64e+000  1.60e+001  2.75e+001  3.23e+001  
-3.59e+001  5.08e+001  0.00e+000  8.63e+000  2.62e+001  4.41e+001  5.20e+001  
-3.37e+001  5.08e+001  0.00e+000  7.56e+000  2.51e+001  4.28e+001  5.02e+001  
-3.16e+001  5.08e+001  0.00e+000  6.45e+000  2.51e+001  4.47e+001  5.17e+001  
-2.95e+001  5.08e+001  0.00e+000  1.72e+001  1.49e+001  4.67e+001  5.20e+001  
-2.73e+001  5.08e+001  0.00e+000  1.75e+001  8.24e+000  4.41e+001  4.81e+001  
-2.52e+001  5.08e+001  0.00e+000  6.62e+000  1.11e+001  2.69e+001  2.98e+001  
-2.31e+001  5.08e+001  0.00e+000  9.11e+000  8.64e+000  2.11e+001  2.46e+001  
-2.09e+001  5.08e+001  0.00e+000  1.20e+001  6.34e+000  1.26e+001  1.85e+001  
-1.88e+001  5.08e+001  0.00e+000  1.27e+001  7.23e+000  5.56e+000  1.56e+001  
-1.67e+001  5.08e+001  0.00e+000  1.16e+001  5.70e+000  3.43e+000  1.33e+001  
-1.45e+001  5.08e+001  0.00e+000  9.88e+000  5.36e+000  3.17e+000  1.17e+001  
-1.24e+001  5.08e+001  0.00e+000  1.11e+001  4.22e+000  3.14e+000  1.23e+001  
-1.03e+001  5.08e+001  0.00e+000  1.24e+001  4.62e+000  1.35e+000  1.33e+001  
-8.13e+000  5.08e+001  0.00e+000  1.15e+001  3.72e+000  -2.79e+000  1.24e+001  
-6.00e+000  5.08e+001  0.00e+000  1.07e+001  2.43e+000  -6.09e+000  1.26e+001  
-3.87e+000  5.08e+001  0.00e+000  1.05e+001  1.70e+000  -5.26e+000  1.19e+001  
-1.73e+000  5.08e+001  0.00e+000  9.98e+000  -4.62e-001  -5.93e+000  1.16e+001  
4.00e-001  5.08e+001  0.00e+000  9.69e+000  -3.84e+000  -3.22e+000  1.09e+001  
2.53e+000  5.08e+001  0.00e+000  1.04e+001  -6.22e+000  1.62e+000  1.22e+001  
4.67e+000  5.08e+001  0.00e+000  1.08e+001  -7.00e+000  6.16e+000  1.43e+001  
6.80e+000  5.08e+001  0.00e+000  1.17e+001  -5.61e+000  6.94e+000  1.47e+001  
8.93e+000  5.08e+001  0.00e+000  1.22e+001  -4.01e+000  6.39e+000  1.44e+001  
1.11e+001  5.08e+001  0.00e+000  1.17e+001  -3.70e+000  7.27e+000  1.43e+001  
1.32e+001  5.08e+001  0.00e+000  1.02e+001  -5.36e+000  4.85e+000  1.25e+001  
1.53e+001  5.08e+001  0.00e+000  1.14e+001  -8.78e+000  3.76e+000  1.48e+001  
1.75e+001  5.08e+001  0.00e+000  1.16e+001  -1.13e+001  2.80e+000  1.64e+001  
1.96e+001  5.08e+001  0.00e+000  1.48e+001  -1.71e+001  8.09e+000  2.40e+001  
2.17e+001  5.08e+001  0.00e+000  1.59e+001  -1.78e+001  1.02e+001  2.59e+001  
2.39e+001  5.08e+001  0.00e+000  1.71e+001  -1.90e+001  8.82e+000  2.70e+001  
2.60e+001  5.08e+001  0.00e+000  1.70e+001  -1.83e+001  9.31e+000  2.67e+001  
2.81e+001  5.08e+001  0.00e+000  1.77e+001  -1.40e+001  1.96e+001  2.99e+001  
3.03e+001  5.08e+001  0.00e+000  9.00e+000  -3.62e+000  6.11e+000  1.15e+001  
3.24e+001  5.08e+001  0.00e+000  9.61e+000  5.70e+000  1.37e+001  1.77e+001  
3.45e+001  5.08e+001  0.00e+000  1.12e+001  6.28e+000  1.38e+001  1.88e+001  
3.67e+001  5.08e+001  0.00e+000  3.70e+000  -2.11e+000  -1.10e+000  4.40e+000  
3.88e+001  5.08e+001  0.00e+000  0.00e+000  0.00e+000  0.00e+000  0.00e+000  
4.09e+001  5.08e+001  0.00e+000  0.00e+000  0.00e+000  0.00e+000  0.00e+000  
4.31e+001  5.08e+001  0.00e+000  0.00e+000  0.00e+000  0.00e+000  0.00e+000  
4.52e+001  5.08e+001  0.00e+000  0.00e+000  0.00e+000  0.00e+000  0.00e+000  
4.73e+001  5.08e+001  0.00e+000  0.00e+000  0.00e+000  0.00e+000  0.00e+000  
4.95e+001  5.08e+001  0.00e+000  0.00e+000  0.00e+000  0.00e+000  0.00e+000  
5.16e+001  5.08e+001  0.00e+000  0.00e+000  0.00e+000  0.00e+000  0.00e+000  
5.37e+001  5.08e+001  0.00e+000  0.00e+000  0.00e+000  0.00e+000  0.00e+000  
5.59e+001  5.08e+001  0.00e+000  0.00e+000  0.00e+000  0.00e+000  0.00e+000  
5.80e+001  5.08e+001  0.00e+000  0.00e+000  0.00e+000  0.00e+000  0.00e+000  
6.01e+001  5.08e+001  0.00e+000  0.00e+000  0.00e+000  0.00e+000  0.00e+000  
-5.93e+001  4.87e+001  0.00e+000  0.00e+000  0.00e+000  0.00e+000  0.00e+000  
-5.72e+001  4.87e+001  0.00e+000  0.00e+000  0.00e+000  0.00e+000  0.00e+000  
-5.51e+001  4.87e+001  0.00e+000  0.00e+000  0.00e+000  0.00e+000  0.00e+000  
-5.29e+001  4.87e+001  0.00e+000  0.00e+000  0.00e+000  0.00e+000  0.00e+000  
-5.08e+001  4.87e+001  0.00e+000  0.00e+000  0.00e+000  0.00e+000  0.00e+000  
-4.87e+001  4.87e+001  0.00e+000  0.00e+000  0.00e+000  0.00e+000  0.00e+000  
-4.65e+001  4.87e+001  0.00e+000  0.00e+000  0.00e+000  0.00e+000  0.00e+000  
-4.44e+001  4.87e+001  0.00e+000  0.00e+000  0.00e+000  0.00e+000  0.00e+000  
-4.23e+001  4.87e+001  0.00e+000  1.29e+000  -1.21e+000  -1.03e-001  1.78e+000  
-4.01e+001  4.87e+001  0.00e+000  8.78e-001  -2.63e+000  -2.91e+000  4.02e+000  
-3.80e+001  4.87e+001  0.00e+000  6.42e+000  2.64e+001  4.32e+001  5.10e+001  
-3.59e+001  4.87e+001  0.00e+000  9.63e+000  2.61e+001  4.50e+001  5.29e+001  
-3.37e+001  4.87e+001  0.00e+000  1.08e+001  2.42e+001  4.64e+001  5.34e+001  
-3.16e+001  4.87e+001  0.00e+000  1.32e+001  2.55e+001  5.36e+001  6.08e+001  
-2.95e+001  4.87e+001  0.00e+000  1.74e+001  2.04e+001  5.25e+001  5.90e+001  
-2.73e+001  4.87e+001  0.00e+000  2.17e+001  8.22e+000  5.03e+001  5.54e+001  
-2.52e+001  4.87e+001  0.00e+000  2.04e+001  -2.20e-001  3.32e+001  3.90e+001  
-2.31e+001  4.87e+001  0.00e+000  1.56e+001  1.33e+000  2.06e+001  2.59e+001  
-2.09e+001  4.87e+001  0.00e+000  1.25e+001  1.25e+000  1.09e+001  1.66e+001  
-1.88e+001  4.87e+001  0.00e+000  1.11e+001  1.76e+000  3.64e+000  1.18e+001  
-1.67e+001  4.87e+001  0.00e+000  1.03e+001  4.32e+000  3.43e+000  1.17e+001  
-1.45e+001  4.87e+001  0.00e+000  9.24e+000  5.66e+000  1.86e+000  1.10e+001  
-1.24e+001  4.87e+001  0.00e+000  1.09e+001  5.61e+000  3.42e+000  1.28e+001  
-1.03e+001  4.87e+001  0.00e+000  9.92e+000  5.98e+000  1.78e+000  1.17e+001  
-8.13e+000  4.87e+001  0.00e+000  9.72e+000  3.95e+000  -2.07e+000  1.07e+001  
-6.00e+000  4.87e+001  0.00e+000  9.63e+000  3.42e+000  -3.90e+000  1.09e+001  
-3.87e+000  4.87e+001  0.00e+000  8.89e+000  2.52e+000  -3.25e+000  9.80e+000  
-1.73e+000  4.87e+001  0.00e+000  1.06e+001  7.19e-001  -4.45e+000  1.15e+001  
4.00e-001  4.87e+001  0.00e+000  1.02e+001  -4.11e-001  -2.58e+000  1.05e+001  
2.53e+000  4.87e+001  0.00e+000  1.02e+001  -2.05e+000  -1.16e+000  1.04e+001  
4.67e+000  4.87e+001  0.00e+000  1.18e+001  -2.71e+000  7.48e-001  1.21e+001  