TITLE = "A908 in dir_close_esq_open Velocity vectors [mm] [m/s]"
VARIABLES = "x","y","z","u","v","w","vmag"
ZONE T="A908 in dir_close_esq_open", I=57, J=59, F=POINT
DT=( SINGLE, SINGLE, SINGLE, SINGLE, SINGLE, SINGLE, SINGLE )
-6.073333359e+001  6.373333359e+001  0.000000000e+000  0.000000000e+000  0.000000000e+000  0.000000000e+000  0.000000000e+000  
-5.860000229e+001  6.373333359e+001  0.000000000e+000  0.000000000e+000  0.000000000e+000  0.000000000e+000  0.000000000e+000  
-5.646667099e+001  6.373333359e+001  0.000000000e+000  0.000000000e+000  0.000000000e+000  0.000000000e+000  0.000000000e+000  
-5.433333969e+001  6.373333359e+001  0.000000000e+000  0.000000000e+000  0.000000000e+000  0.000000000e+000  0.000000000e+000  
-5.220000839e+001  6.373333359e+001  0.000000000e+000  0.000000000e+000  0.000000000e+000  0.000000000e+000  0.000000000e+000  
-5.006667709e+001  6.373333359e+001  0.000000000e+000  0.000000000e+000  0.000000000e+000  0.000000000e+000  0.000000000e+000  
-4.793334579e+001  6.373333359e+001  0.000000000e+000  0.000000000e+000  0.000000000e+000  0.000000000e+000  0.000000000e+000  
-4.580001450e+001  6.373333359e+001  0.000000000e+000  0.000000000e+000  0.000000000e+000  0.000000000e+000  0.000000000e+000  
-4.366668320e+001  6.373333359e+001  0.000000000e+000  0.000000000e+000  0.000000000e+000  0.000000000e+000  0.000000000e+000  
-4.153335190e+001  6.373333359e+001  0.000000000e+000  0.000000000e+000  0.000000000e+000  0.000000000e+000  0.000000000e+000  
-3.940002060e+001  6.373333359e+001  0.000000000e+000  0.000000000e+000  0.000000000e+000  0.000000000e+000  0.000000000e+000  
-3.726668930e+001  6.373333359e+001  0.000000000e+000  0.000000000e+000  0.000000000e+000  0.000000000e+000  0.000000000e+000  
-3.513335800e+001  6.373333359e+001  0.000000000e+000  0.000000000e+000  0.000000000e+000  0.000000000e+000  0.000000000e+000  
-3.300002670e+001  6.373333359e+001  0.000000000e+000  0.000000000e+000  0.000000000e+000  0.000000000e+000  0.000000000e+000  
-3.086669540e+001  6.373333359e+001  0.000000000e+000  0.000000000e+000  0.000000000e+000  0.000000000e+000  0.000000000e+000  
-2.873336411e+001  6.373333359e+001  0.000000000e+000  0.000000000e+000  0.000000000e+000  0.000000000e+000  0.000000000e+000  
-2.660003281e+001  6.373333359e+001  0.000000000e+000  0.000000000e+000  0.000000000e+000  0.000000000e+000  0.000000000e+000  
-2.446670151e+001  6.373333359e+001  0.000000000e+000  0.000000000e+000  0.000000000e+000  0.000000000e+000  0.000000000e+000  
-2.233337021e+001  6.373333359e+001  0.000000000e+000  0.000000000e+000  0.000000000e+000  0.000000000e+000  0.000000000e+000  
-2.020003891e+001  6.373333359e+001  0.000000000e+000  0.000000000e+000  0.000000000e+000  0.000000000e+000  0.000000000e+000  
-1.806670761e+001  6.373333359e+001  0.000000000e+000  0.000000000e+000  0.000000000e+000  0.000000000e+000  0.000000000e+000  
-1.593337631e+001  6.373333359e+001  0.000000000e+000  0.000000000e+000  0.000000000e+000  0.000000000e+000  0.000000000e+000  
-1.380004501e+001  6.373333359e+001  0.000000000e+000  0.000000000e+000  0.000000000e+000  0.000000000e+000  0.000000000e+000  
-1.166666698e+001  6.373333359e+001  0.000000000e+000  -2.629499435e+000  6.602165699e-001  3.590843916e+000  4.499368191e+000  
-9.533333778e+000  6.373333359e+001  0.000000000e+000  -2.886293888e+000  1.364481926e+000  4.257585049e+000  5.321609974e+000  
-7.400000095e+000  6.373333359e+001  0.000000000e+000  -3.048379183e+000  1.925738811e+000  4.780563831e+000  5.987894058e+000  
-5.266666889e+000  6.373333359e+001  0.000000000e+000  -3.010051250e+000  2.453113794e+000  4.482189178e+000  5.930277824e+000  
-3.133333445e+000  6.373333359e+001  0.000000000e+000  -9.948875308e-001  1.917527795e+000  3.405647755e+000  4.033007622e+000  
-1.000000000e+000  6.373333359e+001  0.000000000e+000  -3.454703331e+000  2.154310703e+000  4.265495300e+000  5.896649837e+000  
1.133333325e+000  6.373333359e+001  0.000000000e+000  -4.478065014e+000  1.246298432e+000  4.307596684e+000  6.337327003e+000  
3.266666651e+000  6.373333359e+001  0.000000000e+000  -5.061100483e+000  1.465709686e+000  4.511351585e+000  6.936522007e+000  
5.400000095e+000  6.373333359e+001  0.000000000e+000  -5.767674923e+000  1.504957557e+000  4.355798244e+000  7.382678986e+000  
7.533333302e+000  6.373333359e+001  0.000000000e+000  -5.370602131e+000  1.713111162e+000  4.450104713e+000  7.182029247e+000  
9.666666985e+000  6.373333359e+001  0.000000000e+000  -5.072175503e+000  2.478001595e+000  4.226719379e+000  7.052134991e+000  
1.179993057e+001  6.373333359e+001  0.000000000e+000  0.000000000e+000  0.000000000e+000  0.000000000e+000  0.000000000e+000  
1.393326187e+001  6.373333359e+001  0.000000000e+000  0.000000000e+000  0.000000000e+000  0.000000000e+000  0.000000000e+000  
1.606659317e+001  6.373333359e+001  0.000000000e+000  0.000000000e+000  0.000000000e+000  0.000000000e+000  0.000000000e+000  
1.819992447e+001  6.373333359e+001  0.000000000e+000  0.000000000e+000  0.000000000e+000  0.000000000e+000  0.000000000e+000  
2.033325577e+001  6.373333359e+001  0.000000000e+000  0.000000000e+000  0.000000000e+000  0.000000000e+000  0.000000000e+000  
2.246658707e+001  6.373333359e+001  0.000000000e+000  0.000000000e+000  0.000000000e+000  0.000000000e+000  0.000000000e+000  
2.459991837e+001  6.373333359e+001  0.000000000e+000  0.000000000e+000  0.000000000e+000  0.000000000e+000  0.000000000e+000  
2.673324966e+001  6.373333359e+001  0.000000000e+000  0.000000000e+000  0.000000000e+000  0.000000000e+000  0.000000000e+000  
2.886658096e+001  6.373333359e+001  0.000000000e+000  0.000000000e+000  0.000000000e+000  0.000000000e+000  0.000000000e+000  
3.099991226e+001  6.373333359e+001  0.000000000e+000  0.000000000e+000  0.000000000e+000  0.000000000e+000  0.000000000e+000  
3.313324356e+001  6.373333359e+001  0.000000000e+000  0.000000000e+000  0.000000000e+000  0.000000000e+000  0.000000000e+000  
3.526657486e+001  6.373333359e+001  0.000000000e+000  0.000000000e+000  0.000000000e+000  0.000000000e+000  0.000000000e+000  
3.739990616e+001  6.373333359e+001  0.000000000e+000  0.000000000e+000  0.000000000e+000  0.000000000e+000  0.000000000e+000  
3.953323746e+001  6.373333359e+001  0.000000000e+000  0.000000000e+000  0.000000000e+000  0.000000000e+000  0.000000000e+000  
4.166656876e+001  6.373333359e+001  0.000000000e+000  0.000000000e+000  0.000000000e+000  0.000000000e+000  0.000000000e+000  
4.379990005e+001  6.373333359e+001  0.000000000e+000  0.000000000e+000  0.000000000e+000  0.000000000e+000  0.000000000e+000  
4.593323135e+001  6.373333359e+001  0.000000000e+000  0.000000000e+000  0.000000000e+000  0.000000000e+000  0.000000000e+000  
4.806656265e+001  6.373333359e+001  0.000000000e+000  0.000000000e+000  0.000000000e+000  0.000000000e+000  0.000000000e+000  
5.019989395e+001  6.373333359e+001  0.000000000e+000  0.000000000e+000  0.000000000e+000  0.000000000e+000  0.000000000e+000  
5.233322525e+001  6.373333359e+001  0.000000000e+000  0.000000000e+000  0.000000000e+000  0.000000000e+000  0.000000000e+000  
5.446655655e+001  6.373333359e+001  0.000000000e+000  0.000000000e+000  0.000000000e+000  0.000000000e+000  0.000000000e+000  
5.659988785e+001  6.373333359e+001  0.000000000e+000  0.000000000e+000  0.000000000e+000  0.000000000e+000  0.000000000e+000  
5.873321915e+001  6.373333359e+001  0.000000000e+000  0.000000000e+000  0.000000000e+000  0.000000000e+000  0.000000000e+000  
-6.073333359e+001  6.160000229e+001  0.000000000e+000  0.000000000e+000  0.000000000e+000  0.000000000e+000  0.000000000e+000  
-5.860000229e+001  6.160000229e+001  0.000000000e+000  0.000000000e+000  0.000000000e+000  0.000000000e+000  0.000000000e+000  
-5.646667099e+001  6.160000229e+001  0.000000000e+000  0.000000000e+000  0.000000000e+000  0.000000000e+000  0.000000000e+000  
-5.433333969e+001  6.160000229e+001  0.000000000e+000  0.000000000e+000  0.000000000e+000  0.000000000e+000  0.000000000e+000  
-5.220000839e+001  6.160000229e+001  0.000000000e+000  0.000000000e+000  0.000000000e+000  0.000000000e+000  0.000000000e+000  
-5.006667709e+001  6.160000229e+001  0.000000000e+000  0.000000000e+000  0.000000000e+000  0.000000000e+000  0.000000000e+000  
-4.793334579e+001  6.160000229e+001  0.000000000e+000  0.000000000e+000  0.000000000e+000  0.000000000e+000  0.000000000e+000  
-4.580001450e+001  6.160000229e+001  0.000000000e+000  0.000000000e+000  0.000000000e+000  0.000000000e+000  0.000000000e+000  
-4.366668320e+001  6.160000229e+001  0.000000000e+000  0.000000000e+000  0.000000000e+000  0.000000000e+000  0.000000000e+000  
-4.153335190e+001  6.160000229e+001  0.000000000e+000  0.000000000e+000  0.000000000e+000  0.000000000e+000  0.000000000e+000  
-3.940002060e+001  6.160000229e+001  0.000000000e+000  0.000000000e+000  0.000000000e+000  0.000000000e+000  0.000000000e+000  
-3.726668930e+001  6.160000229e+001  0.000000000e+000  0.000000000e+000  0.000000000e+000  0.000000000e+000  0.000000000e+000  
-3.513335800e+001  6.160000229e+001  0.000000000e+000  0.000000000e+000  0.000000000e+000  0.000000000e+000  0.000000000e+000  
-3.300002670e+001  6.160000229e+001  0.000000000e+000  0.000000000e+000  0.000000000e+000  0.000000000e+000  0.000000000e+000  
-3.086669540e+001  6.160000229e+001  0.000000000e+000  0.000000000e+000  0.000000000e+000  0.000000000e+000  0.000000000e+000  
-2.873336411e+001  6.160000229e+001  0.000000000e+000  0.000000000e+000  0.000000000e+000  0.000000000e+000  0.000000000e+000  
-2.660003281e+001  6.160000229e+001  0.000000000e+000  0.000000000e+000  0.000000000e+000  0.000000000e+000  0.000000000e+000  
-2.446670151e+001  6.160000229e+001  0.000000000e+000  0.000000000e+000  0.000000000e+000  0.000000000e+000  0.000000000e+000  
-2.233337021e+001  6.160000229e+001  0.000000000e+000  0.000000000e+000  0.000000000e+000  0.000000000e+000  0.000000000e+000  
-2.020003891e+001  6.160000229e+001  0.000000000e+000  0.000000000e+000  0.000000000e+000  0.000000000e+000  0.000000000e+000  
-1.806666756e+001  6.159999847e+001  0.000000000e+000  -1.163543034e+001  6.253894567e-001  4.755360603e+000  1.258522129e+001  
-1.593333340e+001  6.159999847e+001  0.000000000e+000  -9.437801361e+000  9.613078237e-001  4.994585514e+000  1.072110462e+001  
-1.380000019e+001  6.159999847e+001  0.000000000e+000  -5.499254704e+000  3.555573225e-001  3.912197828e+000  6.758218288e+000  
-1.166666698e+001  6.159999847e+001  0.000000000e+000  -6.683301449e+000  8.767865896e-001  4.044995308e+000  7.861123085e+000  
-9.533333778e+000  6.159999847e+001  0.000000000e+000  -6.195965767e+000  1.570551038e+000  4.969811440e+000  8.096644402e+000  
-7.400000095e+000  6.159999847e+001  0.000000000e+000  -7.891984463e+000  2.242758512e+000  6.075940609e+000  1.020932961e+001  
-5.266666889e+000  6.159999847e+001  0.000000000e+000  -7.480002880e+000  2.660525799e+000  6.282754898e+000  1.012431908e+001  
-3.133333445e+000  6.159999847e+001  0.000000000e+000  -6.480206490e+000  2.529069662e+000  5.788713455e+000  9.049777985e+000  
-1.000000000e+000  6.159999847e+001  0.000000000e+000  -7.437712193e+000  2.389405966e+000  6.134040833e+000  9.932536125e+000  
1.133333325e+000  6.159999847e+001  0.000000000e+000  -7.483964920e+000  1.760343552e+000  5.988942146e+000  9.745561600e+000  
3.266666651e+000  6.159999847e+001  0.000000000e+000  -8.763814926e+000  1.287958503e+000  5.684244156e+000  1.052491856e+001  
5.400000095e+000  6.159999847e+001  0.000000000e+000  -8.263314247e+000  1.125474334e+000  4.944754601e+000  9.695343018e+000  
7.533333302e+000  6.159999847e+001  0.000000000e+000  -7.544823170e+000  1.615501642e+000  4.693449974e+000  9.031206131e+000  
9.666666985e+000  6.159999847e+001  0.000000000e+000  -6.341072083e+000  2.568057775e+000  4.646450043e+000  8.270044327e+000  
1.180000019e+001  6.159999847e+001  0.000000000e+000  -4.925758839e+000  2.839413166e+000  5.375824928e+000  7.824631214e+000  
1.393333340e+001  6.159999847e+001  0.000000000e+000  -4.762196064e+000  3.537904978e+000  7.182218552e+000  9.315553665e+000  
1.606666756e+001  6.159999847e+001  0.000000000e+000  -6.132847786e+000  2.804363489e+000  6.380795002e+000  9.283901215e+000  
1.819992447e+001  6.160000229e+001  0.000000000e+000  0.000000000e+000  0.000000000e+000  0.000000000e+000  0.000000000e+000  
2.033325577e+001  6.160000229e+001  0.000000000e+000  0.000000000e+000  0.000000000e+000  0.000000000e+000  0.000000000e+000  
2.246658707e+001  6.160000229e+001  0.000000000e+000  0.000000000e+000  0.000000000e+000  0.000000000e+000  0.000000000e+000  
2.459991837e+001  6.160000229e+001  0.000000000e+000  0.000000000e+000  0.000000000e+000  0.000000000e+000  0.000000000e+000  
2.673324966e+001  6.160000229e+001  0.000000000e+000  0.000000000e+000  0.000000000e+000  0.000000000e+000  0.000000000e+000  
2.886658096e+001  6.160000229e+001  0.000000000e+000  0.000000000e+000  0.000000000e+000  0.000000000e+000  0.000000000e+000  
3.099991226e+001  6.160000229e+001  0.000000000e+000  0.000000000e+000  0.000000000e+000  0.000000000e+000  0.000000000e+000  
3.313324356e+001  6.160000229e+001  0.000000000e+000  0.000000000e+000  0.000000000e+000  0.000000000e+000  0.000000000e+000  
3.526657486e+001  6.160000229e+001  0.000000000e+000  0.000000000e+000  0.000000000e+000  0.000000000e+000  0.000000000e+000  
3.739990616e+001  6.160000229e+001  0.000000000e+000  0.000000000e+000  0.000000000e+000  0.000000000e+000  0.000000000e+000  
3.953323746e+001  6.160000229e+001  0.000000000e+000  0.000000000e+000  0.000000000e+000  0.000000000e+000  0.000000000e+000  
4.166656876e+001  6.160000229e+001  0.000000000e+000  0.000000000e+000  0.000000000e+000  0.000000000e+000  0.000000000e+000  
4.379990005e+001  6.160000229e+001  0.000000000e+000  0.000000000e+000  0.000000000e+000  0.000000000e+000  0.000000000e+000  
4.593323135e+001  6.160000229e+001  0.000000000e+000  0.000000000e+000  0.000000000e+000  0.000000000e+000  0.000000000e+000  
4.806656265e+001  6.160000229e+001  0.000000000e+000  0.000000000e+000  0.000000000e+000  0.000000000e+000  0.000000000e+000  
5.019989395e+001  6.160000229e+001  0.000000000e+000  0.000000000e+000  0.000000000e+000  0.000000000e+000  0.000000000e+000  
5.233322525e+001  6.160000229e+001  0.000000000e+000  0.000000000e+000  0.000000000e+000  0.000000000e+000  0.000000000e+000  
5.446655655e+001  6.160000229e+001  0.000000000e+000  0.000000000e+000  0.000000000e+000  0.000000000e+000  0.000000000e+000  
5.659988785e+001  6.160000229e+001  0.000000000e+000  0.000000000e+000  0.000000000e+000  0.000000000e+000  0.000000000e+000  
5.873321915e+001  6.160000229e+001  0.000000000e+000  0.000000000e+000  0.000000000e+000  0.000000000e+000  0.000000000e+000  
-6.073333359e+001  5.946667099e+001  0.000000000e+000  0.000000000e+000  0.000000000e+000  0.000000000e+000  0.000000000e+000  
-5.860000229e+001  5.946667099e+001  0.000000000e+000  0.000000000e+000  0.000000000e+000  0.000000000e+000  0.000000000e+000  
-5.646667099e+001  5.946667099e+001  0.000000000e+000  0.000000000e+000  0.000000000e+000  0.000000000e+000  0.000000000e+000  
-5.433333969e+001  5.946667099e+001  0.000000000e+000  0.000000000e+000  0.000000000e+000  0.000000000e+000  0.000000000e+000  
-5.220000839e+001  5.946667099e+001  0.000000000e+000  0.000000000e+000  0.000000000e+000  0.000000000e+000  0.000000000e+000  
-5.006667709e+001  5.946667099e+001  0.000000000e+000  0.000000000e+000  0.000000000e+000  0.000000000e+000  0.000000000e+000  
-4.793334579e+001  5.946667099e+001  0.000000000e+000  0.000000000e+000  0.000000000e+000  0.000000000e+000  0.000000000e+000  
-4.580001450e+001  5.946667099e+001  0.000000000e+000  0.000000000e+000  0.000000000e+000  0.000000000e+000  0.000000000e+000  
-4.366668320e+001  5.946667099e+001  0.000000000e+000  0.000000000e+000  0.000000000e+000  0.000000000e+000  0.000000000e+000  
-4.153335190e+001  5.946667099e+001  0.000000000e+000  0.000000000e+000  0.000000000e+000  0.000000000e+000  0.000000000e+000  
-3.940002060e+001  5.946667099e+001  0.000000000e+000  0.000000000e+000  0.000000000e+000  0.000000000e+000  0.000000000e+000  
-3.726668930e+001  5.946667099e+001  0.000000000e+000  0.000000000e+000  0.000000000e+000  0.000000000e+000  0.000000000e+000  
-3.513335800e+001  5.946667099e+001  0.000000000e+000  0.000000000e+000  0.000000000e+000  0.000000000e+000  0.000000000e+000  
-3.300002670e+001  5.946667099e+001  0.000000000e+000  0.000000000e+000  0.000000000e+000  0.000000000e+000  0.000000000e+000  
-3.086669540e+001  5.946667099e+001  0.000000000e+000  0.000000000e+000  0.000000000e+000  0.000000000e+000  0.000000000e+000  
-2.873336411e+001  5.946667099e+001  0.000000000e+000  0.000000000e+000  0.000000000e+000  0.000000000e+000  0.000000000e+000  
-2.660003281e+001  5.946667099e+001  0.000000000e+000  0.000000000e+000  0.000000000e+000  0.000000000e+000  0.000000000e+000  
-2.446666718e+001  5.946666718e+001  0.000000000e+000  -8.200379372e+000  -1.534907103e+000  5.257596493e+000  9.861261368e+000  
-2.233333397e+001  5.946666718e+001  0.000000000e+000  -1.217045784e+001  -1.391469479e+000  4.440575600e+000  1.302977180e+001  
-2.020000076e+001  5.946666718e+001  0.000000000e+000  -1.330886269e+001  -6.148283482e-001  3.784020185e+000  1.385000610e+001  
-1.806666756e+001  5.946666718e+001  0.000000000e+000  -1.379938889e+001  4.397559464e-001  4.468967915e+000  1.451165581e+001  
-1.593333340e+001  5.946666718e+001  0.000000000e+000  -1.236167622e+001  1.630015731e+000  5.556684494e+000  1.365081406e+001  
-1.380000019e+001  5.946666718e+001  0.000000000e+000  -1.189330769e+001  2.410516024e+000  6.412661076e+000  1.372529030e+001  
-1.166666698e+001  5.946666718e+001  0.000000000e+000  -1.187013149e+001  2.176321268e+000  6.822070599e+000  1.386279297e+001  
-9.533333778e+000  5.946666718e+001  0.000000000e+000  -1.204321671e+001  2.260888100e+000  7.965827942e+000  1.461523438e+001  
-7.400000095e+000  5.946666718e+001  0.000000000e+000  -1.219798088e+001  2.219590187e+000  8.400635719e+000  1.497624779e+001  
-5.266666889e+000  5.946666718e+001  0.000000000e+000  -1.199291706e+001  2.474303484e+000  8.945594788e+000  1.516495705e+001  
-3.133333445e+000  5.946666718e+001  0.000000000e+000  -1.132516479e+001  2.668101072e+000  7.677700043e+000  1.394005775e+001  
-1.000000000e+000  5.946666718e+001  0.000000000e+000  -1.096896076e+001  2.505816460e+000  6.229645729e+000  1.286101532e+001  
1.133333325e+000  5.946666718e+001  0.000000000e+000  -1.072504711e+001  2.589314222e+000  6.598303318e+000  1.285569000e+001  
3.266666651e+000  5.946666718e+001  0.000000000e+000  -1.010966492e+001  2.672286272e+000  6.647432804e+000  1.239091587e+001  
5.400000095e+000  5.946666718e+001  0.000000000e+000  -1.007717323e+001  1.996335745e+000  5.523769379e+000  1.166390991e+001  
7.533333302e+000  5.946666718e+001  0.000000000e+000  -9.925771713e+000  1.645744085e+000  4.213592052e+000  1.090796852e+001  
9.666666985e+000  5.946666718e+001  0.000000000e+000  -8.400102615e+000  2.183783770e+000  5.148315430e+000  1.009137249e+001  
1.180000019e+001  5.946666718e+001  0.000000000e+000  -7.692438602e+000  2.906565189e+000  6.316169739e+000  1.036897945e+001  
1.393333340e+001  5.946666718e+001  0.000000000e+000  -6.812823296e+000  4.399250507e+000  7.740152359e+000  1.121061611e+001  
1.606666756e+001  5.946666718e+001  0.000000000e+000  -7.660106659e+000  4.369647503e+000  8.124821663e+000  1.199098778e+001  
1.820000076e+001  5.946666718e+001  0.000000000e+000  -7.120851994e+000  4.165300846e+000  8.698665619e+000  1.198845482e+001  
2.033333397e+001  5.946666718e+001  0.000000000e+000  -6.675776482e+000  4.601977825e+000  9.474177361e+000  1.247013378e+001  
2.246666718e+001  5.946666718e+001  0.000000000e+000  -6.504996777e+000  5.079906464e+000  1.059737110e+001  1.343222618e+001  
2.459991837e+001  5.946667099e+001  0.000000000e+000  0.000000000e+000  0.000000000e+000  0.000000000e+000  0.000000000e+000  
2.673324966e+001  5.946667099e+001  0.000000000e+000  0.000000000e+000  0.000000000e+000  0.000000000e+000  0.000000000e+000  
2.886658096e+001  5.946667099e+001  0.000000000e+000  0.000000000e+000  0.000000000e+000  0.000000000e+000  0.000000000e+000  
3.099991226e+001  5.946667099e+001  0.000000000e+000  0.000000000e+000  0.000000000e+000  0.000000000e+000  0.000000000e+000  
3.313324356e+001  5.946667099e+001  0.000000000e+000  0.000000000e+000  0.000000000e+000  0.000000000e+000  0.000000000e+000  
3.526657486e+001  5.946667099e+001  0.000000000e+000  0.000000000e+000  0.000000000e+000  0.000000000e+000  0.000000000e+000  
3.739990616e+001  5.946667099e+001  0.000000000e+000  0.000000000e+000  0.000000000e+000  0.000000000e+000  0.000000000e+000  
3.953323746e+001  5.946667099e+001  0.000000000e+000  0.000000000e+000  0.000000000e+000  0.000000000e+000  0.000000000e+000  
4.166656876e+001  5.946667099e+001  0.000000000e+000  0.000000000e+000  0.000000000e+000  0.000000000e+000  0.000000000e+000  
4.379990005e+001  5.946667099e+001  0.000000000e+000  0.000000000e+000  0.000000000e+000  0.000000000e+000  0.000000000e+000  
4.593323135e+001  5.946667099e+001  0.000000000e+000  0.000000000e+000  0.000000000e+000  0.000000000e+000  0.000000000e+000  
4.806656265e+001  5.946667099e+001  0.000000000e+000  0.000000000e+000  0.000000000e+000  0.000000000e+000  0.000000000e+000  
5.019989395e+001  5.946667099e+001  0.000000000e+000  0.000000000e+000  0.000000000e+000  0.000000000e+000  0.000000000e+000  
5.233322525e+001  5.946667099e+001  0.000000000e+000  0.000000000e+000  0.000000000e+000  0.000000000e+000  0.000000000e+000  
5.446655655e+001  5.946667099e+001  0.000000000e+000  0.000000000e+000  0.000000000e+000  0.000000000e+000  0.000000000e+000  
5.659988785e+001  5.946667099e+001  0.000000000e+000  0.000000000e+000  0.000000000e+000  0.000000000e+000  0.000000000e+000  
5.873321915e+001  5.946667099e+001  0.000000000e+000  0.000000000e+000  0.000000000e+000  0.000000000e+000  0.000000000e+000  
-6.073333359e+001  5.733333969e+001  0.000000000e+000  0.000000000e+000  0.000000000e+000  0.000000000e+000  0.000000000e+000  
-5.860000229e+001  5.733333969e+001  0.000000000e+000  0.000000000e+000  0.000000000e+000  0.000000000e+000  0.000000000e+000  
-5.646667099e+001  5.733333969e+001  0.000000000e+000  0.000000000e+000  0.000000000e+000  0.000000000e+000  0.000000000e+000  
-5.433333969e+001  5.733333969e+001  0.000000000e+000  0.000000000e+000  0.000000000e+000  0.000000000e+000  0.000000000e+000  
-5.220000839e+001  5.733333969e+001  0.000000000e+000  0.000000000e+000  0.000000000e+000  0.000000000e+000  0.000000000e+000  
-5.006667709e+001  5.733333969e+001  0.000000000e+000  0.000000000e+000  0.000000000e+000  0.000000000e+000  0.000000000e+000  
-4.793334579e+001  5.733333969e+001  0.000000000e+000  0.000000000e+000  0.000000000e+000  0.000000000e+000  0.000000000e+000  
-4.580001450e+001  5.733333969e+001  0.000000000e+000  0.000000000e+000  0.000000000e+000  0.000000000e+000  0.000000000e+000  
-4.366668320e+001  5.733333969e+001  0.000000000e+000  0.000000000e+000  0.000000000e+000  0.000000000e+000  0.000000000e+000  
-4.153335190e+001  5.733333969e+001  0.000000000e+000  0.000000000e+000  0.000000000e+000  0.000000000e+000  0.000000000e+000  
-3.940002060e+001  5.733333969e+001  0.000000000e+000  0.000000000e+000  0.000000000e+000  0.000000000e+000  0.000000000e+000  
-3.726668930e+001  5.733333969e+001  0.000000000e+000  0.000000000e+000  0.000000000e+000  0.000000000e+000  0.000000000e+000  
-3.513335800e+001  5.733333969e+001  0.000000000e+000  0.000000000e+000  0.000000000e+000  0.000000000e+000  0.000000000e+000  
-3.300002670e+001  5.733333969e+001  0.000000000e+000  0.000000000e+000  0.000000000e+000  0.000000000e+000  0.000000000e+000  
-3.086669540e+001  5.733333969e+001  0.000000000e+000  0.000000000e+000  0.000000000e+000  0.000000000e+000  0.000000000e+000  
-2.873333359e+001  5.733333206e+001  0.000000000e+000  -8.933748245e+000  -2.487467527e+000  5.772914410e+000  1.092363834e+001  
-2.660000038e+001  5.733333206e+001  0.000000000e+000  -1.027302647e+001  -2.419596910e+000  5.695745468e+000  1.199295807e+001  
-2.446666718e+001  5.733333206e+001  0.000000000e+000  -1.178052235e+001  -2.466449738e+000  5.132409573e+000  1.308455944e+001  
-2.233333397e+001  5.733333206e+001  0.000000000e+000  -1.378825188e+001  -2.348061800e+000  4.302862167e+000  1.463365650e+001  
-2.020000076e+001  5.733333206e+001  0.000000000e+000  -1.489040184e+001  -1.445132732e+000  4.380749226e+000  1.558856678e+001  
-1.806666756e+001  5.733333206e+001  0.000000000e+000  -1.524832535e+001  4.552809894e-002  3.321152449e+000  1.560588074e+001  
-1.593333340e+001  5.733333206e+001  0.000000000e+000  -1.588195992e+001  1.708804965e+000  3.134490490e+000  1.627825928e+001  
-1.380000019e+001  5.733333206e+001  0.000000000e+000  -1.510752964e+001  3.125045300e+000  3.893887997e+000  1.591118145e+001  
-1.166666698e+001  5.733333206e+001  0.000000000e+000  -1.444530106e+001  4.009224892e+000  7.141977310e+000  1.660567665e+001  
-9.533333778e+000  5.733333206e+001  0.000000000e+000  -1.455992031e+001  3.750145912e+000  8.727934837e+000  1.738481331e+001  
-7.400000095e+000  5.733333206e+001  0.000000000e+000  -1.433955479e+001  3.224076986e+000  8.917432785e+000  1.719122314e+001  
-5.266666889e+000  5.733333206e+001  0.000000000e+000  -1.366834641e+001  3.474552393e+000  1.004216862e+001  1.731304169e+001  
-3.133333445e+000  5.733333206e+001  0.000000000e+000  -1.281236458e+001  3.310682297e+000  8.979546547e+000  1.599217319e+001  
-1.000000000e+000  5.733333206e+001  0.000000000e+000  -1.270274353e+001  3.200247765e+000  6.594037056e+000  1.466569424e+001  
1.133333325e+000  5.733333206e+001  0.000000000e+000  -1.211827850e+001  3.070926189e+000  5.937374115e+000  1.383964157e+001  
3.266666651e+000  5.733333206e+001  0.000000000e+000  -1.095722485e+001  2.810229063e+000  6.062802792e+000  1.283416176e+001  
5.400000095e+000  5.733333206e+001  0.000000000e+000  -1.072432137e+001  2.285785675e+000  5.395484447e+000  1.222076702e+001  
7.533333302e+000  5.733333206e+001  0.000000000e+000  -1.027270985e+001  2.241969585e+000  4.437296867e+000  1.141247559e+001  
9.666666985e+000  5.733333206e+001  0.000000000e+000  -9.717261314e+000  2.380249977e+000  5.339828491e+000  1.134039497e+001  
1.180000019e+001  5.733333206e+001  0.000000000e+000  -9.096186638e+000  3.274773359e+000  7.066684246e+000  1.197509003e+001  
1.393333340e+001  5.733333206e+001  0.000000000e+000  -1.040150166e+001  5.449079037e+000  8.716281891e+000  1.462386036e+001  
1.606666756e+001  5.733333206e+001  0.000000000e+000  -9.468533516e+000  4.929306984e+000  7.893682480e+000  1.327634811e+001  
1.820000076e+001  5.733333206e+001  0.000000000e+000  -9.710825920e+000  5.579903126e+000  9.850547791e+000  1.491538811e+001  
2.033333397e+001  5.733333206e+001  0.000000000e+000  -1.038793087e+001  6.821123600e+000  1.255443478e+001  1.766495514e+001  
2.246666718e+001  5.733333206e+001  0.000000000e+000  -9.181762695e+000  6.233688354e+000  1.170225620e+001  1.612781525e+001  
2.460000038e+001  5.733333206e+001  0.000000000e+000  -7.259976387e+000  5.240361691e+000  9.783070564e+000  1.326186848e+001  
2.673333359e+001  5.733333206e+001  0.000000000e+000  -5.261810780e+000  4.120436668e+000  7.540267944e+000  1.007572842e+001  
2.886658096e+001  5.733333969e+001  0.000000000e+000  0.000000000e+000  0.000000000e+000  0.000000000e+000  0.000000000e+000  
3.099991226e+001  5.733333969e+001  0.000000000e+000  0.000000000e+000  0.000000000e+000  0.000000000e+000  0.000000000e+000  
3.313324356e+001  5.733333969e+001  0.000000000e+000  0.000000000e+000  0.000000000e+000  0.000000000e+000  0.000000000e+000  
3.526657486e+001  5.733333969e+001  0.000000000e+000  0.000000000e+000  0.000000000e+000  0.000000000e+000  0.000000000e+000  
3.739990616e+001  5.733333969e+001  0.000000000e+000  0.000000000e+000  0.000000000e+000  0.000000000e+000  0.000000000e+000  
3.953323746e+001  5.733333969e+001  0.000000000e+000  0.000000000e+000  0.000000000e+000  0.000000000e+000  0.000000000e+000  
4.166656876e+001  5.733333969e+001  0.000000000e+000  0.000000000e+000  0.000000000e+000  0.000000000e+000  0.000000000e+000  
4.379990005e+001  5.733333969e+001  0.000000000e+000  0.000000000e+000  0.000000000e+000  0.000000000e+000  0.000000000e+000  
4.593323135e+001  5.733333969e+001  0.000000000e+000  0.000000000e+000  0.000000000e+000  0.000000000e+000  0.000000000e+000  
4.806656265e+001  5.733333969e+001  0.000000000e+000  0.000000000e+000  0.000000000e+000  0.000000000e+000  0.000000000e+000  
5.019989395e+001  5.733333969e+001  0.000000000e+000  0.000000000e+000  0.000000000e+000  0.000000000e+000  0.000000000e+000  
5.233322525e+001  5.733333969e+001  0.000000000e+000  0.000000000e+000  0.000000000e+000  0.000000000e+000  0.000000000e+000  
5.446655655e+001  5.733333969e+001  0.000000000e+000  0.000000000e+000  0.000000000e+000  0.000000000e+000  0.000000000e+000  
5.659988785e+001  5.733333969e+001  0.000000000e+000  0.000000000e+000  0.000000000e+000  0.000000000e+000  0.000000000e+000  
5.873321915e+001  5.733333969e+001  0.000000000e+000  0.000000000e+000  0.000000000e+000  0.000000000e+000  0.000000000e+000  
-6.073333359e+001  5.520000839e+001  0.000000000e+000  0.000000000e+000  0.000000000e+000  0.000000000e+000  0.000000000e+000  
-5.860000229e+001  5.520000839e+001  0.000000000e+000  0.000000000e+000  0.000000000e+000  0.000000000e+000  0.000000000e+000  