/*--------------------------------*- C++ -*----------------------------------*\
| =========                 |                                                 |
| \\      /  F ield         | OpenFOAM: The Open Source CFD Toolbox           |
|  \\    /   O peration     | Version:  1.7.0                                 |
|   \\  /    A nd           | Web:      www.OpenFOAM.com                      |
|    \\/     M anipulation  |                                                 |
\*---------------------------------------------------------------------------*/
FoamFile
{
    version     2.0;
    format      ascii;
    class       volScalarField;
    location    "0.252";
    object      aC3H6O;
}
// * * * * * * * * * * * * * * * * * * * * * * * * * * * * * * * * * * * * * //

dimensions      [0 0 0 0 0 0 0];

internalField   nonuniform List<scalar> 
14800
(
0.042
0.042
0.042
0.042
0.042
0.042
0.042
0.0420003
0.042001
0.0420012
0.0420015
0.0420016
0.0420018
0.0420018
0.0420019
0.0420023
0.0420021
0.0420022
0.0420025
0.0420026
0.0420026
0.0420026
0.0420028
0.0420027
0.0420026
0.0420027
0.0420027
0.0420025
0.0420024
0.0420024
0.0420022
0.0420016
0.0420011
0.0420002
0.0419991
0.0419978
0.0419957
0.0419934
0.0419901
0.041986
0.0419809
0.0419745
0.0419662
0.0419561
0.0419432
0.0419274
0.041908
0.0418838
0.0418544
0.0418185
0.0417748
0.0417219
0.0416582
0.041582
0.0414911
0.041384
0.0412608
0.041113
0.0409407
0.0407435
0.0405207
0.0402704
0.039991
0.0396837
0.0393505
0.03899
0.0386042
0.0381971
0.037769
0.037322
0.0368609
0.036386
0.0359007
0.0354056
0.0349041
0.0343956
0.0338813
0.0333665
0.0328473
0.0323278
0.031809
0.031291
0.0307758
0.0302653
0.0297583
0.0292569
0.0287605
0.0282713
0.0277914
0.0273145
0.0268451
0.0263847
0.0259291
0.0254833
0.0250425
0.0246092
0.0241827
0.023768
0.0233578
0.0229537
0.0225607
0.022171
0.021793
0.0214206
0.0210548
0.0206991
0.0203476
0.0200041
0.0196674
0.0193389
0.0190167
0.0187009
0.0183891
0.018086
0.0177869
0.0174944
0.0172065
0.016926
0.01665
0.0163826
0.016118
0.0158608
0.0156102
0.0153657
0.0151277
0.0148893
0.014657
0.014432
0.0142077
0.0139917
0.0137767
0.0135698
0.0133602
0.013155
0.0129544
0.0127587
0.0125642
0.0123782
0.0121934
0.0120136
0.0118362
0.0116639
0.0114942
0.0113274
0.0111693
0.0110076
0.0108521
0.0107044
0.010551
0.0104002
0.0102569
0.0101084
0.00997051
0.00982961
0.00969317
0.00956017
0.00942925
0.00930238
0.00917728
0.00905323
0.00892976
0.00881428
0.00869194
0.00857937
0.00846153
0.00834869
0.00823994
0.00813186
0.00802662
0.00791706
0.00781172
0.00771058
0.00761028
0.00750942
0.00741123
0.00731465
0.00722003
0.00712679
0.00702996
0.00693998
0.00684709
0.00675699
0.0066767
0.00658827
0.00650287
0.00642384
0.00633972
0.00625651
0.00618369
0.00610715
0.00603889
0.00596412
0.00589325
0.00582934
0.00575789
0.005694
0.00563136
0.0055686
0.00550555
0.00544148
0.042
0.042
0.042
0.042
0.042
0.042
0.042
0.0420003
0.0420005
0.0420007
0.042001
0.0420011
0.0420014
0.0420016
0.0420019
0.042002
0.0420019
0.042002
0.0420021
0.0420023
0.0420023
0.0420024
0.0420025
0.0420026
0.0420025
0.0420025
0.0420025
0.0420024
0.0420023
0.0420021
0.0420016
0.0420012
0.0420005
0.0419996
0.0419983
0.0419967
0.0419944
0.0419917
0.0419881
0.0419835
0.0419777
0.0419706
0.0419614
0.0419501
0.0419361
0.0419188
0.0418976
0.0418714
0.0418395
0.0418009
0.0417542
0.0416978
0.0416305
0.04155
0.0414548
0.0413428
0.0412129
0.0410604
0.0408842
0.0406836
0.0404573
0.0402036
0.0399218
0.0396135
0.0392784
0.0389174
0.0385324
0.0381257
0.0376985
0.0372538
0.0367946
0.036322
0.0358385
0.0353462
0.0348466
0.0343404
0.0338289
0.0333153
0.032799
0.0322818
0.0317652
0.0312494
0.0307365
0.0302273
0.0297224
0.0292224
0.0287279
0.0282406
0.0277604
0.027286
0.0268185
0.0263582
0.0259046
0.0254586
0.0250187
0.024587
0.0241625
0.0237471
0.023338
0.022936
0.0225421
0.0221548
0.0217758
0.0214038
0.0210395
0.0206831
0.0203325
0.01999
0.0196541
0.0193247
0.0190026
0.0186866
0.0183766
0.018073
0.0177744
0.0174818
0.0171944
0.0169133
0.0166386
0.0163697
0.0161067
0.01585
0.0155991
0.0153544
0.0151145
0.0148779
0.0146462
0.0144195
0.0141964
0.0139787
0.0137649
0.0135557
0.0133477
0.0131429
0.0129429
0.0127471
0.0125545
0.0123672
0.012183
0.0120019
0.0118256
0.0116534
0.0114836
0.011318
0.0111563
0.0109961
0.0108406
0.01069
0.0105375
0.010389
0.0102431
0.0100983
0.00995809
0.00981836
0.00968185
0.0095477
0.00941717
0.00928996
0.00916345
0.00904033
0.00891663
0.00879933
0.00868031
0.00856491
0.00844838
0.00833661
0.00822728
0.00811796
0.0080121
0.0079048
0.00779899
0.00769551
0.00759472
0.00749505
0.00739765
0.00730104
0.00720547
0.00711014
0.00701486
0.0069241
0.00683183
0.00674323
0.00665904
0.00657127
0.00648697
0.00640693
0.00632438
0.00624182
0.00616752
0.00609283
0.00602139
0.00594743
0.00587785
0.00581099
0.00574156
0.00567643
0.00561454
0.00554976
0.00548659
0.00542405
0.042
0.042
0.042
0.042
0.042
0.042
0.042
0.0420001
0.0420003
0.0420005
0.0420007
0.0420009
0.042001
0.0420013
0.0420014
0.0420016
0.0420016
0.0420018
0.0420019
0.0420019
0.0420019
0.0420021
0.0420022
0.0420022
0.0420022
0.0420021
0.042002
0.0420019
0.0420018
0.0420013
0.0420008
0.0420001
0.0419992
0.0419979
0.0419962
0.0419941
0.0419913
0.0419876
0.0419831
0.0419773
0.0419701
0.0419611
0.0419499
0.0419362
0.0419191
0.0418983
0.041873
0.0418422
0.0418049
0.0417601
0.0417065
0.0416425
0.0415666
0.0414772
0.0413722
0.0412501
0.0411084
0.0409458
0.0407607
0.0405517
0.0403175
0.0400571
0.0397703
0.0394582
0.0391209
0.0387595
0.0383755
0.0379705
0.0375464
0.0371057
0.0366506
0.0361829
0.0357046
0.0352171
0.0347224
0.0342213
0.0337152
0.0332065
0.0326952
0.0321831
0.0316713
0.0311603
0.0306518
0.0301468
0.0296459
0.0291493
0.028659
0.0281751
0.0276978
0.0272269
0.0267625
0.0263046
0.0258538
0.0254098
0.0249727
0.0245436
0.0241216
0.0237077
0.0233006
0.0229006
0.0225083
0.0221229
0.021745
0.0213744
0.0210112
0.0206557
0.0203067
0.0199652
0.0196302
0.0193016
0.0189801
0.018665
0.0183558
0.0180527
0.0177553
0.0174632
0.0171767
0.016896
0.0166217
0.0163532
0.0160912
0.0158351
0.0155843
0.0153396
0.0150996
0.0148639
0.0146326
0.0144061
0.0141834
0.0139658
0.0137522
0.0135425
0.0133353
0.0131312
0.0129312
0.0127356
0.012544
0.0123566
0.0121723
0.0119918
0.0118155
0.0116434
0.0114739
0.0113083
0.0111459
0.0109861
0.0108304
0.0106787
0.0105276
0.0103793
0.0102335
0.0100892
0.00994851
0.00980899
0.0096729
0.00953854
0.00940833
0.00928082
0.00915438
0.00903087
0.00890709
0.00878919
0.00867127
0.00855467
0.00843949
0.0083276
0.00821836
0.00810872
0.00800231
0.00789575
0.00779011
0.00768635
0.00758522
0.00748591
0.00738852
0.00729175
0.00719558
0.00709956
0.00700546
0.00691413
0.00682233
0.00673381
0.00664801
0.00656083
0.006477
0.00639637
0.00631422
0.006232
0.00615706
0.00608275
0.00601063
0.00593744
0.00586743
0.00579958
0.00573113
0.00566563
0.00560319
0.00553784
0.00547455
0.00541277
0.042
0.042
0.042
0.042
0.042
0.042
0.042
0.0420001
0.0420002
0.0420004
0.0420006
0.0420008
0.0420009
0.042001
0.0420012
0.0420013
0.0420014
0.0420015
0.0420015
0.0420017
0.0420017
0.0420018
0.0420019
0.0420018
0.0420018
0.0420017
0.0420015
0.0420012
0.0420008
0.0420002
0.0419994
0.0419983
0.0419969
0.041995
0.0419926
0.0419895
0.0419855
0.0419805
0.0419742
0.0419663
0.0419566
0.0419446
0.0419299
0.0419118
0.0418899
0.0418634
0.0418314
0.0417929
0.0417469
0.0416924
0.0416278
0.0415518
0.0414629
0.0413594
0.04124
0.0411029
0.0409462
0.0407691
0.0405705
0.0403491
0.0401039
0.0398345
0.0395411
0.0392242
0.0388843
0.0385225
0.03814
0.0377381
0.0373188
0.0368839
0.0364353
0.0359746
0.0355037
0.0350237
0.0345365
0.0340431
0.033545
0.0330438
0.0325402
0.0320354
0.0315307
0.0310268
0.030525
0.0300262
0.0295313
0.0290407
0.0285562
0.0280774
0.0276051
0.027139
0.0266791
0.0262255
0.0257786
0.0253381
0.0249049
0.0244794
0.024061
0.0236498
0.0232457
0.0228485
0.0224586
0.0220756
0.0216998
0.0213314
0.0209702
0.0206166
0.0202695
0.0199296
0.0195962
0.0192691
0.0189489
0.0186352
0.0183271
0.0180251
0.0177287
0.0174378
0.0171525
0.0168729
0.0165993
0.0163316
0.0160705
0.0158151
0.015565
0.0153208
0.0150811
0.0148463
0.0146157
0.0143897
0.0141676
0.0139503
0.0137369
0.0135273
0.0133208
0.0131175
0.0129179
0.0127226
0.0125316
0.0123443
0.0121605
0.0119803
0.0118042
0.0116321
0.0114631
0.0112975
0.0111351
0.0109758
0.01082
0.0106679
0.0105176
0.0103697
0.0102239
0.01008
0.00993909
0.00979982
0.00966394
0.00952988
0.00939977
0.00927237
0.00914584
0.00902204
0.00889857
0.00878031
0.00866282
0.00854608
0.00843141
0.00831971
0.00821037
0.00810073
0.0079939
0.0078878
0.00778235
0.00767855
0.00757748
0.00747815
0.00738073
0.00728375
0.00718724
0.00709121
0.00699767
0.0069061
0.00681465
0.00672612
0.0066395
0.00655274
0.00646883
0.00638782
0.00630588
0.00622389
0.0061487
0.00607441
0.00600207
0.00592924
0.00585895
0.00579074
0.00572299
0.00565724
0.00559419
0.0055288
0.00546529
0.0054039
0.042
0.042
0.042
0.042
0.042
0.042
0.042
0.0420001
0.0420001
0.0420003
0.0420004
0.0420005
0.0420007
0.0420009
0.042001
0.0420011
0.0420012
0.0420013
0.0420013
0.0420014
0.0420014
0.0420015
0.0420014
0.0420013
0.0420012
0.042001
0.0420006
0.0420001
0.0419993
0.0419984
0.041997
0.0419953
0.0419931
0.0419902
0.0419865
0.0419818
0.0419759
0.0419686
0.0419595
0.0419484
0.0419347
0.041918
0.0418977
0.0418733
0.0418439
0.0418087
0.0417668
0.0417171
0.0416586
0.04159
0.0415101
0.0414176
0.0413111
0.0411894
0.041051
0.040895
0.0407199
0.0405253
0.0403102
0.040074
0.0398162
0.0395368
0.039236
0.0389142
0.0385719
0.0382102
0.0378303
0.0374329
0.0370198
0.0365924
0.0361522
0.0357006
0.0352393
0.0347694
0.0342921
0.0338088
0.033321
0.0328298
0.0323361
0.0318409
0.0313454
0.0308507
0.0303576
0.0298672
0.0293804
0.0288977
0.0284205
0.0279486
0.0274829
0.0270229
0.026569
0.026121
0.0256795
0.0252441
0.024816
0.024395
0.023981
0.0235738
0.0231735
0.0227799
0.0223933
0.0220136
0.0216408
0.0212752
0.0209167
0.0205654
0.020221
0.0198832
0.0195519
0.019227
0.0189086
0.0185966
0.0182903
0.0179898
0.0176949
0.0174055
0.0171216
0.0168433
0.0165709
0.0163044
0.0160443
0.0157898
0.0155407
0.0152972
0.0150585
0.0148246
0.0145949
0.0143696
0.0141483
0.0139315
0.0137186
0.0135095
0.0133037
0.0131011
0.0129021
0.0127073
0.0125168
0.0123299
0.0121465
0.0119668
0.0117911
0.0116193
0.0114506
0.0112851
0.011123
0.0109641
0.0108086
0.0106565
0.0105066
0.010359
0.0102133
0.0100698
0.00992912
0.00979008
0.00965437
0.00952065
0.00939064
0.00926323
0.00913695
0.00901305
0.00888992
0.00877156
0.00865421
0.00853764
0.00842332
0.00831181
0.00820229
0.0080929
0.0079858
0.0078801
0.00777485
0.00767121
0.0075701
0.00747084
0.00737329
0.00727617
0.00717941
0.00708374
0.00699031
0.00689858
0.0068075
0.00671894
0.00663201
0.00654535
0.00646134
0.00638008
0.00629807
0.0062167
0.00614128
0.00606703
0.00599455
0.00592191
0.0058515
0.00578305
0.00571574
0.00564967
0.00558636
0.00552089
0.00545734
0.00539618
0.042
0.042
0.042
0.042
0.042
0.042
0.042
0.042
0.0420001
0.0420002
0.0420004
0.0420005
0.0420006
0.0420007
0.0420008
0.0420009
0.042001
0.042001
0.0420011
0.0420011
0.0420011
0.042001
0.0420009
0.0420007
0.0420003
0.0419999
0.0419992
0.0419982
0.0419969
0.0419952
0.0419931
0.0419902
0.0419866
0.0419821
0.0419763
0.0419691
0.0419603
0.0419494
0.041936
0.0419198
0.0419001
0.0418764
0.041848
0.0418141
0.041774
0.0417265
0.0416708
0.0416057
0.0415302
0.0414432
0.0413435
0.0412301
0.0411019
0.040958
0.0407974
0.0406196
0.0404239
0.0402099
0.0399772
0.0397255
0.039455
0.0391655
0.0388576
0.0385315
0.0381878
0.0378273
0.0374509
0.0370594
0.036654
0.0362357
0.0358057
0.0353651
0.0349154
0.0344574
0.0339924
0.0335215
0.033046
0.0325669
0.0320851
0.0316017
0.0311176
0.030634
0.0301516
0.0296715
0.0291946
0.0287215
0.0282532
0.0277898
0.027332
0.0268798
0.0264332
0.0259922
0.0255572
0.0251282
0.024706
0.0242907
0.023882
0.0234798
0.0230842
0.0226952
0.0223128
0.021937
0.0215679
0.0212058
0.0208507
0.0205025
0.020161
0.0198261
0.0194975
0.0191751
0.0188591
0.0185493
0.0182451
0.0179466
0.0176536
0.0173659
0.0170838
0.0168072
0.0165363
0.0162713
0.0160125
0.0157593
0.0155116
0.0152691
0.0150315
0.0147985
0.0145699
0.0143456
0.0141252
0.0139092
0.013697
0.0134885
0.0132834
0.0130817
0.0128835
0.0126893
0.0124994
0.0123132
0.0121304
0.0119512
0.0117759
0.0116045
0.0114362
0.011271
0.0111094
0.0109511
0.0107957
0.0106438
0.0104943
0.010347
0.0102014
0.0100586
0.0099181
0.00977941
0.00964391
0.00951059
0.00938076
0.00925339
0.0091274
0.00900349
0.00888078
0.00876226
0.00864513
0.00852883
0.0084148
0.00830334
0.00819395
0.00808465
0.00797766
0.00787218
0.00776713
0.00766369
0.00756276
0.0074635
0.00736585
0.00726859
0.00717179
0.00707644
0.00698309
0.0068912
0.00680038
0.00671191
0.00662481
0.00653831
0.00645408
0.00637272
0.00629063
0.00620981
0.00613437
0.00606009
0.00598749
0.00591502
0.00584466
0.00577604
0.00570884
0.00564266
0.00557901
0.00551358
0.00545005
0.00538912
0.042
0.042
0.042
0.042
0.042
0.042
0.042
0.042
0.0420002
0.0420002
0.0420003
0.0420004
0.0420005
0.0420006
0.0420007
0.0420007
0.0420007
0.0420008
0.0420008
0.0420007
0.0420006
0.0420004
0.0420001
0.0419996
0.0419989
0.041998
0.0419967
0.041995
0.0419928
0.04199
0.0419863
0.0419817
0.0419759
0.0419686
0.0419596
0.0419485
0.041935
0.0419186
0.0418987
0.0418749
0.0418463
0.0418125
0.0417724
0.0417252
0.0416701
0.041606
0.0415318
0.0414467
0.0413497
0.0412399
0.0411163
0.0409784
0.0408253
0.0406567
0.0404721
0.0402713
0.0400541
0.0398206
0.0395706
0.0393042
0.0390218
0.0387235
0.0384097
0.0380806
0.0377368
0.0373788
0.0370074
0.036623
0.0362266
0.0358188
0.0354005
0.0349727
0.0345362
0.0340921
0.0336411
0.0331844
0.0327231
0.032258
0.0317901
0.0313202
0.0308494
0.0303787
0.0299088
0.0294408
0.0289754
0.0285134
0.0280556
0.0276021
0.0271538
0.0267105
0.0262725
0.0258396
0.0254124
0.0249908
0.0245758
0.024167
0.0237646
0.0233683
0.0229783
0.0225945
0.0222171
0.021846
0.0214814
0.0211234
0.0207723
0.0204278
0.0200899
0.0197583
0.0194329
0.0191136
0.0188005
0.0184932
0.0181916
0.0178956
0.0176047
0.0173193
0.0170393
0.0167646
0.0164957
0.0162324
0.0159751
0.0157235
0.0154772
0.0152361
0.0149999
0.0147682
0.0145407
0.0143176
0.0140983
0.0138833
0.013672
0.0134643
0.0132601
0.0130594
0.0128621
0.0126686
0.0124794
0.0122939
0.0121116
0.0119332
0.0117585
0.0115876
0.0114197
0.0112551
0.011094
0.0109362
0.0107813
0.0106296
0.0104805
0.0103336
0.0101884
0.0100461
0.00990583
0.00976765
0.00963245
0.00949954
0.0093699
0.00924264
0.00911685
0.00899318
0.00887079
0.00875234
0.00863535
0.00851943
0.00840573
0.00829442
0.00818518
0.00807599
0.00796911
0.00786385
0.00775909
0.00765595
0.00755504
0.00745591
0.00735819
0.0072609
0.00716418
0.00706898
0.00697568
0.0068839
0.00679309
0.00670469
0.00661762
0.00653125
0.00644697
0.00636544
0.00628341
0.0062031
0.00612762
0.00605338
0.00598066
0.00590839
0.00583815
0.00576944
0.00570222
0.00563597
0.00557201
0.00550669
0.00544319
0.00538244
0.042
0.042
0.042
0.042
0.042
0.042
0.042
0.042
0.0420001
0.0420002
0.0420003
0.0420004
0.0420004
0.0420004
0.0420005
0.0420005
0.0420005
0.0420005
0.0420004
0.0420002
0.0419998
0.0419994
0.0419987
0.0419977
0.0419964
0.0419947
0.0419925
0.0419895
0.0419857
0.0419809
0.0419748
0.0419672
0.0419578
0.0419462
0.0419321
0.041915
0.0418944
0.0418696
0.0418402
0.0418052
0.041764
0.0417157
0.0416594
0.0415942
0.0415192
0.0414334
0.0413361
0.0412263
0.0411036
0.0409672
0.0408167
0.040652
0.0404725
0.0402784
0.0400696
0.0398463
0.0396087
0.039357
0.0390914
0.0388122
0.0385199
0.0382146
0.0378967
0.0375665
0.0372242
0.0368703
0.0365052
0.0361293
0.0357432
0.0353472
0.0349419
0.0345282
0.0341065
0.0336776
0.0332423
0.0328014
0.0323558
0.0319064
0.0314539
0.0309993
0.0305433
0.0300871
0.0296314
0.0291769
0.0287245
0.028275
0.027829
0.0273868
0.0269491
0.0265161
0.0260877
0.0256642
0.0252458
0.0248328
0.0244257
0.0240244
0.0236292
0.0232397
0.0228561
0.0224784
0.0221067
0.021741
0.0213816
0.0210284
0.0206819
0.0203417
0.0200078
0.0196801
0.0193584
0.0190427
0.0187328
0.0184286
0.01813
0.0178366
0.0175484
0.0172655
0.0169879
0.0167155
0.0164488
0.0161876
0.0159322
0.0156823
0.0154378
0.0151982
0.0149636
0.0147333
0.0145073
0.0142855
0.0140675
0.0138536
0.0136434
0.0134368
0.0132336
0.0130339
0.0128376
0.0126451
0.0124568
0.012272
0.0120906
0.0119129
0.0117389
0.0115685
0.0114012
0.0112373
0.0110769
0.0109196
0.0107652
0.0106139
0.0104652
0.0103187
0.0101742
0.0100323
0.00989239
0.00975469
0.00961983
0.00948744
0.009358
0.00923089
0.00910535
0.00898198
0.00885994
0.00874167
0.00862491
0.00850936
0.00839602
0.00828485
0.00817578
0.00806684
0.00796
0.00785503
0.00775057
0.00764773
0.00754697
0.00744782
0.00735009
0.00725284
0.00715626
0.00706128
0.00696801
0.00687629
0.00678563
0.00669735
0.00661031
0.00652408
0.00643979
0.00635813
0.00627625
0.00619638
0.00612085
0.00604661
0.00597393
0.00590178
0.00583161
0.00576295
0.0056957
0.00562949
0.00556519
0.00550006
0.00543652
0.00537611
0.042
0.042
0.042
0.042
0.042
0.042
0.042
0.042
0.0420001
0.0420002
0.0420002
0.0420002
0.0420003
0.0420003
0.0420003
0.0420003
0.0420002
0.042
0.0419996
0.0419992
0.0419985
0.0419975
0.0419962
0.0419944
0.041992
0.0419888
0.0419848
0.0419797
0.0419732
0.0419651
0.0419551
0.0419427
0.0419276
0.0419093
0.0418874
0.0418611
0.0418298
0.0417928
0.0417494
0.0416986
0.0416397
0.0415718
0.041494
0.0414054
0.0413053
0.0411931
0.0410681
0.04093
0.0407785
0.0406134
0.0404348
0.0402427
0.0400371
0.0398185
0.0395872
0.0393435
0.0390878
0.0388206
0.0385422
0.038253
0.0379534
0.0376436
0.0373239
0.0369945
0.0366556
0.0363074
0.0359502
0.0355841
0.0352094
0.0348264
0.0344354
0.0340368
0.033631
0.0332185
0.0328001
0.0323763
0.0319478
0.0315153
0.0310797
0.0306417
0.030202
0.0297616
0.0293213
0.0288817
0.0284437
0.0280079
0.0275749
0.0271452
0.0267194
0.0262976
0.0258801
0.0254669
0.0250584
0.0246548
0.0242566
0.0238637
0.0234765
0.0230946
0.0227182
0.0223472
0.0219819
0.0216223
0.0212687
0.020921
0.0205796
0.0202443
0.0199151
0.0195916
0.0192741
0.0189623
0.0186562
0.0183556
0.0180602
0.0177699
0.0174848
0.0172047
0.0169298
0.01666
0.0163957
0.0161369
0.0158837
0.0156359
0.0153933
0.0151556
0.0149227
0.0146941
0.0144697
0.0142494
0.0140329
0.0138203
0.0136113
0.0134059
0.0132039
0.0130053
0.0128101
0.0126187
0.0124313
0.0122475
0.012067
0.0118901
0.0117169
0.0115472
0.0113807
0.0112176
0.0110578
0.0109012
0.0107473
0.0105966
0.0104483
0.0103024
0.0101584
0.010017
0.00987759
0.00974047
0.00960603
0.00947405
0.00934496
0.00921809
0.00909292
0.00896982
0.00884819
0.00873018
0.00861371
0.00849852
0.0083855
0.00827457
0.00816568
0.00805707
0.00795044
0.00784569
0.00774154
0.00763903
0.00753844
0.00743933
0.00734153
0.00724434
0.007148
0.00705322
0.00696003
0.00686837
0.0067779
0.00668971
0.00660283
0.0065167
0.00643244
0.00635066
0.00626901
0.00618954
0.00611394
0.00603973
0.00596717
0.00589509
0.00582507
0.00575647
0.00568919
0.00562298
0.00555848
0.00549355
0.00542995
0.00536995
0.042
0.042
0.042
0.042
0.042
0.042
0.042
0.0420001
0.0420001
0.0420001
0.0420001
0.0420002
0.0420002
0.0420001
0.042
0.0419998
0.0419995
0.0419991
0.0419983
0.0419973
0.0419959
0.041994
0.0419915
0.0419881
0.0419837
0.0419781
0.0419711
0.0419623
0.0419513
0.0419378
0.0419214
0.0419014
0.0418775
0.0418489
0.041815
0.041775
0.0417282
0.0416737
0.0416108
0.0415385
0.041456
0.0413626
0.0412576
0.0411406
0.0410109
0.0408684
0.0407129
0.0405444
0.0403632
0.0401693
0.0399632
0.0397453
0.0395158
0.0392754
0.0390246
0.0387639
0.0384937
0.0382145
0.0379267
0.0376308
0.0373269
0.0370155
0.0366965
0.0363702
0.0360367
0.0356959
0.035348
0.034993
0.0346309
0.0342619
0.033886
0.0335034
0.0331145
0.0327195
0.0323189
0.0319131
0.0315028
0.0310884
0.0306707
0.0302504
0.0298281
0.0294047
0.0289809
0.0285574
0.0281348
0.0277138
0.027295
0.0268789
0.026466
0.0260565
0.0256506
0.0252487
0.024851
0.0244577
0.0240693
0.0236856
0.0233071
0.0229335
0.022565
0.0222015
0.0218433
0.0214904
0.0211431
0.0208015
0.0204658
0.0201359
0.0198117
0.0194932
0.0191803
0.0188728
0.0185708
0.0182741
0.0179825
0.0176958
0.0174139
0.017137
0.0168651
0.0165981
0.0163366
0.0160805
0.0158297
0.0155841
0.0153437
0.0151082
0.0148772
0.0146506
0.0144279
0.0142092
0.0139943
0.0137833
0.0135758
0.0133717
0.0131709
0.0129736
0.0127797
0.0125895
0.0124032
0.0122203
0.012041
0.011865
0.0116927
0.0115237
0.011358
0.0111958
0.0110368
0.0108809
0.0107277
0.0105776
0.0104299
0.0102845
0.0101411
0.0100004
0.00986148
0.00972493
0.00959095
0.00945949
0.00933074
0.00920419
0.00907941
0.00895669
0.00883556
0.00871779
0.00860165
0.00848686
0.00837418
0.00826357
0.00815479
0.00804649
0.00794021
0.00783571
0.00773192
0.00762974
0.00752931
0.00743025
0.00733249
0.00723543
0.00713934
0.00704474
0.00695167
0.00686015
0.00676985
0.00668183
0.00659506
0.00650906
0.00642487
0.00634304
0.00626159
0.00618249
0.00610688
0.0060327
0.00596021
0.00588829
0.00581836
0.0057498
0.00568254
0.00561647
0.00555176
0.00548703
0.00542346
0.00536374
0.042
0.042
0.042
0.042
0.042
0.042
0.042
0.042
0.042
0.0420001
0.0420001
0.0420001
0.042
0.0419998
0.0419995
0.0419989
0.0419982
0.0419971
0.0419957
0.0419936
0.0419908
0.0419872
0.0419824
0.0419762
0.0419684
0.0419586
0.0419464
0.0419314
0.0419131
0.0418909
0.0418643
0.0418326
0.0417951
0.041751
0.0416996
0.04164
0.0415714
0.041493
0.041404
0.0413038
0.0411917
0.0410674
0.0409307
0.0407812
0.0406191
0.0404446
0.0402579
0.0400594
0.0398497
0.0396292
0.0393984
0.0391579
0.0389083
0.0386502
0.038384
0.0381104
0.0378299
0.0375428
0.0372495
0.0369504
0.0366456
0.0363354
0.0360199
0.035699
0.0353727
0.0350411
0.034704
0.0343613
0.0340129
0.0336588
0.0332988
0.0329331
0.0325618
0.032185
0.0318029
0.031416
0.0310245
0.0306291
0.0302302
0.0298285
0.0294246
0.0290191
0.0286127
0.0282061
0.0277999
0.0273946
0.0269909
0.0265892
0.0261901
0.0257938
0.0254006
0.0250108
0.0246246
0.0242424
0.0238645
0.0234908
0.0231218
0.0227572
0.0223971
0.0220418
0.0216912
0.0213457
0.0210053
0.0206703
0.0203408
0.0200167
0.0196982
0.019385
0.0190771
0.0187745
0.018477
0.0181845
0.0178969
0.0176141
0.0173358
0.0170624
0.0167939
0.0165301
0.0162716
0.0160183
0.0157702
0.0155272
0.0152892
0.015056
0.0148272
0.0146026
0.0143819
0.0141651
0.013952
0.0137425
0.0135366
0.0133341
0.0131349
0.012939
0.0127464
0.0125574
0.0123724
0.0121907
0.0120125
0.0118375
0.0116662
0.0114982
0.0113334
0.011172
0.0110139
0.0108588
0.0107064
0.0105569
0.0104098
0.0102651
0.0101225
0.00998232
0.00984402
0.00970806
0.00957462
0.00944368
0.00931538
0.00918918
0.0090648
0.00894249
0.00882196
0.0087045
0.00858876
0.00847437
0.00836205
0.00825178
0.00814317
0.00803528
0.00792928
0.00782507
0.00772168
0.0076198
0.00751959
0.00742062
0.00732292
0.00722607
0.00713024
0.00703586
0.00694292
0.00685152
0.00676144
0.00667354
0.00658694
0.00650114
0.00641701
0.00633514
0.00625399
0.00617522
0.00609958
0.00602546
0.00595304
0.00588132
0.00581154
0.00574299
0.00567582
0.00560978
0.00554507
0.00548051
0.00541694
0.00535748
0.042
0.042
0.042
0.042
0.042
0.042
0.042
0.042
0.042
0.042
0.0419999
0.0419997
0.0419994
0.0419989
0.0419982
0.041997
0.0419954
0.0419932
0.0419901
0.0419861
0.0419807
0.0419738
0.041965
0.0419539
0.0419401
0.0419231
0.0419023
0.0418772
0.0418471
0.0418112
0.0417689
0.0417194
0.0416618
0.0415954
0.0415192
0.0414327
0.0413351
0.0412258
0.0411045
0.0409706
0.0408242
0.0406653
0.0404942
0.040311
0.0401164
0.0399108
0.0396949
0.0394692
0.0392344
0.0389913
0.0387403
0.038482
0.0382171
0.037946
0.0376694
0.0373876
0.0371012
0.0368105
0.0365156
0.036217
0.0359146
0.0356087
0.0352991
0.0349859
0.034669
0.0343482
0.0340232
0.0336941
0.0333604
0.0330219
0.0326787
0.0323305
0.0319773
0.0316192
0.0312563
0.0308887
0.0305168
0.0301408
0.0297614
0.029379
0.0289941
0.0286072
0.028219
0.0278301
0.0274409
0.0270522
0.0266643
0.0262778
0.0258933
0.025511
0.0251311
0.0247542
0.0243804
0.0240099
0.0236431
0.0232801
0.0229211
0.0225661
0.0222152
0.0218686
0.0215263
0.0211886
0.0208557
0.0205278
0.020205
0.0198873
0.0195747
0.0192673
0.0189648
0.0186674
0.0183748
0.018087
0.0178038
0.0175251
0.0172509
0.0169812
0.0167162
0.016456
0.0162007
0.0159505
0.0157054
0.0154652
0.0152298
0.014999
0.0147726
0.0145502
0.0143317
0.014117
0.0139058
0.0136982
0.013494
0.0132931
0.0130955
0.0129012
0.0127101
0.0125226
0.0123388
0.0121584
0.0119815
0.0118077
0.0116375
0.0114704
0.0113067
0.0111463
0.010989
0.0108348
0.0106832
0.0105345
0.0103881
0.0102442
0.0101023
0.00996279
0.00982519
0.00968988
0.009557
0.00942658
0.00929877
0.00917306
0.00904914
0.00892735
0.00880737
0.00869026
0.00857495
0.00846099
0.00834906
0.00823914
0.00813082
0.00802331
0.00791763
0.00781373
0.00771073
0.00760921
0.00750919
0.00741039
0.00731282
0.00721622
0.00712063
0.00702651
0.00693374
0.0068425
0.00675267
0.00666486
0.00657846
0.00649287
0.00640885
0.00632705
0.00624611
0.00616762
0.006092
0.00601799
0.00594567
0.00587411
0.00580447
0.00573604
0.00566892
0.00560299
0.00553831
0.00547388
0.00541036
0.00535113
0.042
0.042
0.042
0.042
0.042
0.042
0.0419999
0.0419999
0.0419998
0.0419997
0.0419994
0.0419989
0.0419981
0.041997
0.0419952
0.0419928
0.0419894
0.0419848
0.0419788
0.0419709
0.0419608
0.041948
0.0419321
0.0419124
0.0418884
0.0418594
0.0418246
0.0417833
0.0417347
0.0416779
0.0416123
0.0415369
0.041451
0.041354
0.0412453
0.0411244
0.0409909
0.0408449
0.0406864
0.0405155
0.0403327
0.0401385
0.0399335
0.0397185
0.0394942
0.0392613
0.0390205
0.0387725
0.038518
0.0382576
0.0379919
0.0377214
0.0374467
0.037168
0.036886
0.0366009
0.0363132
0.0360229
0.0357304
0.0354358
0.0351391
0.0348402
0.0345392
0.0342359
0.0339302
0.0336217
0.0333104
0.0329958
0.0326777
0.0323558
0.0320299
0.0316997
0.0313652
0.0310262
0.0306827
0.0303349
0.0299829
0.0296269
0.0292674
0.0289047
0.0285393
0.0281716
0.0278022
0.0274315
0.02706
0.0266884
0.026317
0.0259464
0.0255771
0.0252094
0.0248436
0.0244801
0.0241192
0.0237611
0.0234061
0.0230543
0.022706
0.0223611
0.0220199
0.0216825
0.021349
0.0210196
0.0206947
0.0203744
0.0200587
0.0197478
0.0194417
0.0191404
0.0188437
0.0185518
0.0182645
0.0179817
0.0177032
0.0174291
0.0171591
0.0168935
0.0166324
0.0163759
0.0161241
0.0158773
0.0156353
0.0153981
0.0151655
0.0149375
0.0147136
0.0144937
0.0142774
0.0140649
0.0138559
0.0136502
0.013448
0.0132489
0.013053
0.0128604
0.0126709
0.012485
0.0123026
0.0121237
0.011948
0.0117754
0.0116064
0.0114405
0.0112779
0.0111186
0.0109623
0.0108089
0.0106583
0.0105103
0.0103648
0.0102216
0.0100806
0.0099418
0.00980496
0.00967031
0.00953806
0.00940829
0.00928101
0.00915579
0.00903241
0.0089112
0.00879177
0.0086751
0.00856018
0.00844675
0.00833522
0.00822565
0.00811763
0.00801062
0.00790527
0.00780168
0.00769911
0.00759797
0.00749814
0.00739955
0.00730216
0.00720582
0.00711055
0.00701661
0.00692412
0.00683305
0.00674345
0.00665582
0.00656962
0.00648424
0.00640037
0.00631864
0.00623797
0.00615974
0.00608414
0.00601027
0.00593808
0.0058667
0.00579717
0.00572884
0.00566186
0.00559602
0.00553138
0.0054671
0.00540364
0.00534466
0.042
0.042
0.042
0.042
0.042
0.0419999
0.0419998
0.0419997
0.0419994
0.041999
0.0419982
0.0419969
0.0419951
0.0419924
0.0419886
0.0419835
0.0419765
0.0419674
0.0419556
0.0419407
0.0419219
0.0418987
0.0418704
0.0418361
0.0417951
0.0417466
0.0416897
0.0416235
0.0415473
0.0414602
0.0413618
0.0412513
0.0411283
0.0409926
0.0408441
0.040683
0.0405093
0.0403238
0.0401268
0.0399191
0.0397016
0.0394751
0.0392404
0.0389984
0.0387499
0.0384956
0.0382362
0.0379722
0.0377043
0.037433
0.0371588
0.036882
0.036603
0.0363222
0.0360398
0.0357562
0.0354715
0.0351859
0.0348994
0.0346121
0.034324
0.0340349
0.0337448
0.0334535
0.0331607
0.0328662
0.0325697
0.0322708
0.0319691
0.0316644
0.0313563
0.0310446
0.0307291
0.0304095
0.0300859
0.0297581
0.0294263
0.0290905
0.0287512
0.0284086
0.028063
0.0277148
0.0273645
0.0270125
0.0266591
0.0263051
0.0259507
0.0255965
0.0252429
0.0248904
0.0245392
0.0241897
0.0238422
0.023497
0.0231543
0.0228143
0.0224771
0.0221429
0.0218119
0.0214841
0.0211599
0.0208393
0.0205228
0.0202104
0.0199023
0.0195987
0.0192994
0.0190046
0.0187141
0.0184281
0.0181464
0.0178688
0.0175954
0.0173261
0.0170607
0.0167995
0.0165425
0.0162899
0.016042
0.0157987
0.0155601
0.0153261
0.0150965
0.0148714
0.0146502
0.0144329
0.0142192
0.014009
0.0138023
0.0135988
0.0133985
0.0132014
0.0130074
0.0128165
0.0126289
0.0124446
0.0122638
0.0120863
0.011912
0.0117409
0.0115731
0.0114084
0.011247
0.0110888
0.0109336
0.0107813
0.0106316
0.0104845
0.0103398
0.0101975
0.0100574
0.00991936
0.00978334
0.00964937
0.00951784
0.0093887
0.00926206
0.00913742
0.00901465
0.00889397
0.00877516
0.00865891
0.0085445
0.00843156
0.00832047
0.00821132
0.00810366
0.00799713
0.00789216
0.00778891
0.0076868
0.00758599
0.00748643
0.00738804
0.00729091
0.00719488
0.00709991
0.00700623
0.00691398
0.00682314
0.00673379
0.00664639
0.00656034
0.00647524
0.00639157
0.00630993
0.00622953
0.00615154
0.00607599
0.00600226
0.00593023
0.00585908
0.00578961
0.0057214
0.00565456
0.00558887
0.0055243
0.00546017
0.00539681
0.00533804
0.042
0.042
0.042
0.042
0.0419999
0.0419998
0.0419995
0.0419991
0.0419983
0.041997
0.0419951
0.0419921
0.0419879
0.041982
0.0419739
0.0419631
0.0419492
0.0419313
0.0419087
0.0418808
0.0418466
0.0418054
0.0417561
0.0416979
0.0416298
0.0415511
0.041461
0.0413588
0.041244
0.0411161
0.0409752
0.040821
0.0406539
0.0404741
0.0402823
0.0400791
0.0398653
0.0396419
0.0394098
0.0391699
0.0389232
0.0386707
0.0384132
0.0381515
0.0378862
0.0376179
0.0373471
0.0370743
0.0368
0.0365244
0.0362479
0.0359707
0.0356931
0.0354153
0.0351375
0.0348598
0.0345823
0.034305
0.0340279
0.0337511
0.0334743
0.0331975
0.0329205
0.032643
0.0323648
0.0320856
0.031805
0.0315227
0.0312383
0.0309514
0.0306617
0.0303688
0.0300726
0.0297727
0.029469
0.0291614
0.0288499
0.0285345
0.0282156
0.0278932
0.0275676
0.0272392
0.0269082
0.0265751
0.0262403
0.0259041
0.0255671
0.0252297
0.0248923
0.0245553
0.0242191
0.0238841
0.0235505
0.0232187
0.0228886
0.0225608
0.0222352
0.0219122
0.0215917
0.0212741
0.0209595
0.0206482
0.0203404
0.0200365
0.0197364
0.0194403
0.0191482
0.0188602
0.0185764
0.0182965
0.0180207
0.0177487
0.0174807
0.0172164
0.0169558
0.0166992
0.0164466
0.0161983
0.0159543
0.0157148