/*--------------------------------*- C++ -*----------------------------------*\
| =========                 |                                                 |
| \\      /  F ield         | OpenFOAM: The Open Source CFD Toolbox           |
|  \\    /   O peration     | Version:  1.7.0                                 |
|   \\  /    A nd           | Web:      www.OpenFOAM.com                      |
|    \\/     M anipulation  |                                                 |
\*---------------------------------------------------------------------------*/
FoamFile
{
    version     2.0;
    format      ascii;
    class       volScalarField;
    location    "0.252";
    object      epsilon;
}
// * * * * * * * * * * * * * * * * * * * * * * * * * * * * * * * * * * * * * //

dimensions      [0 2 -3 0 0 0 0];

internalField   nonuniform List<scalar> 
14800
(
849.732
849.951
850.116
850.252
850.369
850.473
850.567
850.673
850.805
850.953
851.103
851.226
851.341
851.473
851.63
851.797
851.966
852.119
852.267
852.426
852.588
852.753
852.936
853.15
853.401
853.692
854.04
854.454
854.952
855.558
856.304
857.212
858.339
859.748
861.509
863.704
866.453
869.902
874.23
879.644
886.385
894.768
905.182
918.078
933.993
953.58
977.633
1007.09
1043.04
1086.75
1139.7
1203.54
1280.17
1371.5
1479.61
1606.75
1761.61
2085.91
2348.69
2509.12
2666.65
2873.91
3139.32
3898.44
4117.2
4294.94
4528.52
4744.46
4923.66
5106.98
5292.19
5532.88
5912.7
6143.69
6174.24
6190.73
6208.78
6192.6
6177.89
7289.6
6744.64
6506.42
6282.7
5997.93
6223.15
6819.56
7430.58
5809.72
6581.23
5180.87
4859.48
4667.33
4807.38
4415.92
4133.18
4077.93
3725.43
3556.35
3386.95
3770.97
3218.68
2979.99
2832.07
4680.18
2689.47
2484.61
2340.28
2271.47
2160.28
2025.62
1948.29
1843.89
2453.13
1968.29
1594.75
1441.55
1374.2
1336.78
1236.27
1217.88
1129.57
1059.89
1003.21
970.061
893.218
848.402
805.753
760.202
722.512
694.096
658.978
638.373
606.104
562.097
533.576
497.229
469.276
447.69
424.11
402.637
380.353
362.14
342.9
325.664
315.655
296.531
281.728
266.735
255.861
241.525
229.828
218.009
207.421
197.156
186.76
179.138
171.615
162.185
154.233
145.554
139.584
133.017
125.289
118.818
114.198
110.03
105.161
100.389
95.0631
91.5807
87.0848
83.4946
77.5224
74.9715
71.3641
67.796
65.3196
61.9269
58.8443
57.2402
53.223
52.0928
49.206
46.5242
44.758
43.1154
40.471
39.3998
38.0183
36.2585
36.1303
33.3801
31.4732
30.139
29.1964
27.6735
25.9515
25.4596
24.4549
23.3167
864.246
864.304
864.388
864.479
864.57
864.656
864.741
864.842
864.974
865.121
865.275
865.407
865.526
865.666
865.838
866.015
866.189
866.347
866.502
866.675
866.851
867.023
867.216
867.445
867.723
868.053
868.447
868.914
869.482
870.179
871.038
872.093
873.409
875.055
877.112
879.679
882.889
886.903
891.922
898.184
905.958
915.599
927.527
942.235
960.3
982.439
1009.51
1042.51
1082.57
1131.03
1189.38
1259.28
1342.67
1441.35
1557.27
1692.49
1853.67
2147.44
2403.15
2584.72
2765.79
2988.03
3255.82
3794.03
4074.03
4327.37
4592.55
4818.26
5010.45
5195.38
5377.35
5572.91
5945.47
6166.95
6204.57
6223.43
6240.57
6222.1
6199.61
7054.4
6634.81
6447.79
6248.99
5984.43
6045.24
6518.14
6708.94
5677.3
5909.13
5086.45
4817.95
4661.53
4726.77
4388.79
4126.77
4005.42
3718.8
3547.54
3383.79
3599.62
3184.47
2976.62
2824.32
3455.89
2635.51
2478.37
2337.71
2268.05
2157.16
2024.07
1944.96
1838.38
1821.81
1905.03
1583.71
1440.18
1369.73
1309.41
1229
1183.6
1126.54
1056.24
999.047
960.915
891.174
845.838
802.355
759.859
722.035
692.396
657.488
634.165
600.775
558.61
530.191
496.643
469.079
446.657
423.348
401.946
380.124
361.676
342.653
325.335
314.852
295.628
281.228
266.437
255.15
240.984
229.047
217.491
206.909
196.554
186.487
178.707
170.223
161.596
153.907
145.396
138.981
132.468
125.184
118.781
113.959
109.625
104.543
99.9484
94.4657
90.801
86.4196
82.7369
77.4927
74.4931
70.9138
67.6409
64.9268
61.7986
58.7672
56.9
53.2063
51.4176
48.972
46.4583
44.6322
42.9544
40.4426
39.1595
37.6681
36.0319
35.5406
33.0897
31.3751
30.0223
28.99
27.5596
25.9456
25.2932
24.2705
23.1597
895.742
895.86
895.941
896.009
896.072
896.135
896.205
896.293
896.405
896.543
896.694
896.847
896.984
897.13
897.293
897.477
897.667
897.862
898.053
898.256
898.458
898.658
898.897
899.186
899.54
899.967
900.473
901.08
901.826
902.757
903.898
905.322
907.11
909.342
912.137
915.619
919.952
925.352
932.065
940.368
950.631
963.285
978.822
997.836
1021.01
1049.2
1083.35
1124.6
1174.21
1233.58
1304.25
1387.9
1486.4
1601.35
1734.32
1886.88
2062.79
2321.32
2569.43
2781.96
2998.97
3244.47
3518.33
3894.06
4193.93
4487.42
4768.97
5004.88
5205.07
5388.42
5561.58
5734.43
6040.08
6235.87
6279.82
6300.29
6312.62
6289.13
6252.92
6755.49
6490.97
6366.95
6202.37
5972.51
5902.32
6180.29
6145.56
5548.2
5454.3
5022.7
4802.52
4656.71
4620.12
4350.78
4118.12
3949.9
3714.47
3544.25
3381.81
3419.66
3150.58
2972.36
2819.73
2874.63
2600.84
2468.77
2333.51
2261.54
2151.77
2021.3
1939.49
1832.99
1728.75
1818.98
1565.23
1437.91
1364.72
1294.97
1226.05
1174.65
1121.86
1053.18
995.434
950.982
889.72
843.715
800.946
759.611
721.579
690.133
655.805
629.685
594.67
556.189
527.855
496.197
468.903
445.994
422.837
401.418
380.005
361.312
342.467
325.113
313.643
295.021
280.717
266.117
254.427
240.646
228.528
217.189
206.523
196.163
186.311
178.174
169.468
161.223
153.568
145.264
138.626
132.08
125.107
118.766
113.778
109.245
104.142
99.5257
94.1229
90.2201
85.993
82.2513
77.4565
74.1847
70.6729
67.5045
64.6403
61.6845
58.6897
56.6258
53.1823
51.0834
48.8008
46.4096
44.5329
42.8238
40.4178
38.993
37.4522
35.8748
35.0674
32.9005
31.2955
29.939
28.8402
27.4624
25.937
25.1722
24.1252
23.0447
944.889
944.827
944.794
944.79
944.806
944.841
944.892
944.965
945.06
945.174
945.316
945.485
945.673
945.847
946.017
946.19
946.378
946.604
946.845
947.099
947.356
947.633
947.964
948.362
948.844
949.438
950.164
951.046
952.135
953.505
955.205
957.332
960
963.331
967.484
972.633
979.023
986.946
996.722
1008.71
1023.41
1041.37
1063.24
1089.75
1121.78
1160.3
1206.48
1261.58
1326.98
1404.17
1494.68
1600.11
1722
1861.62
2019.92
2197.59
2395.98
2639.86
2888.97
3129.29
3377.29
3641.89
3920.12
4226.24
4515.6
4803.96
5074.8
5306.12
5503
5676.72
5833.57
5981.29
6211.17
6368.34
6409.01
6424.4
6426.21
6393.94
6342.59
6569.25
6407.41
6319.26
6178.36
5979.16
5849.16
5956.17
5843.31
5467.91
5270.28
5003.8
4807.88
4656.51
4543.57
4321.73
4112.56
3925.25
3716.02
3545.47
3383.1
3313.06
3128.73
2969.21
2818.22
2715.27
2583.46
2458.56
2328.95
2253.46
2145.01
2017.82
1932.78
1826.91
1713.78
1739.03
1546.9
1435.85
1361.4
1290.02
1224.92
1170.9
1116.78
1050.53
992.86
944.216
888.846
842.658
800.387
759.421
721.194
688.181
654.162
625.335
589.852
554.401
526.168
495.824
468.805
445.557
422.526
401.079
379.937
361.055
342.335
324.963
312.339
294.551
280.223
265.808
253.821
240.37
228.202
216.971
206.252
195.925
186.183
177.71
169.05
160.966
153.279
145.163
138.394
131.824
125.05
118.759
113.629
108.931
103.852
99.168
93.9172
89.8361
85.6915
81.9378
77.4192
73.9849
70.5346
67.3981
64.4585
61.5823
58.6207
56.3967
53.1563
50.9115
48.6874
46.3697
44.4554
42.7121
40.3951
38.8732
37.3117
35.7565
34.7295
32.7677
31.2302
29.8749
28.7279
27.3867
25.9268
25.0787
24.0144
22.9626
1011.96
1011.84
1011.76
1011.74
1011.74
1011.77
1011.83
1011.9
1011.99
1012.1
1012.23
1012.42
1012.66
1012.91
1013.11
1013.29
1013.47
1013.72
1014.01
1014.34
1014.7
1015.1
1015.57
1016.15
1016.87
1017.75
1018.84
1020.2
1021.91
1024.07
1026.77
1030.15
1034.38
1039.64
1046.14
1054.17
1064.08
1076.26
1091.15
1109.29
1131.3
1157.93
1190.02
1228.51
1274.48
1329.11
1393.72
1469.68
1558.44
1661.45
1780.09
1915.59
2068.88
2240.62
2430.75
2638.85
2864.53
3114.34
3373.41
3634.52
3901.67
4175.31
4451.42
4728.68
4996.98
5259.42
5503.36
5715.32
5895.83
6050.02
6182.39
6299.51
6459.09
6570.04
6595.97
6597.49
6582.43
6536.55
6469.17
6523.72
6408.36
6326.1
6193.21
6012.04
5858.22
5846.01
5704.04
5433.38
5222.95
5012.88
4824.78
4662.64
4505.53
4307.65
4112.4
3920.19
3722.98
3550.96
3388.28
3267.57
3118.67
2967.99
2818.6
2683.09
2573.28
2449.64
2325.07
2245.12
2137.81
2014.14
1925.6
1820.52
1708.21
1679.57
1532.93
1434.62
1359.87
1288.82
1224.6
1168.42
1112.25
1048.45
991.336
940.562
888.509
842.358
800.198
759.303
720.901
686.744
652.682
621.644
586.531
553.073
524.916
495.522
468.78
445.278
422.35
400.881
379.911
360.884
342.255
324.872
311.16
294.172
279.785
265.54
253.343
240.134
227.988
216.798
206.066
195.777
186.085
177.367
168.797
160.774
153.047
145.089
138.231
131.653
125.005
118.756
113.507
108.675
103.624
98.8826
93.7797
89.5818
85.468
81.719
77.3828
73.8525
70.445
67.3164
64.3416
61.4915
58.56
56.2064
53.1309
50.814
48.6098
46.3355
44.393
42.6132
40.3738
38.7836
37.2114
35.6607
34.4834
32.6669
31.1743
29.8217
28.6394
27.3273
25.9155
25.0027
23.9293
22.9025
1098.44
1098.41
1098.4
1098.41
1098.44
1098.49
1098.57
1098.66
1098.76
1098.89
1099.04
1099.26
1099.53
1099.8
1100.03
1100.26
1100.52
1100.82
1101.19
1101.64
1102.16
1102.75
1103.47
1104.37
1105.49
1106.87
1108.62
1110.85
1113.67
1117.22
1121.68
1127.23
1134.14
1142.69
1153.2
1166.09
1181.84
1200.99
1224.21
1252.21
1285.84
1326.1
1374.01
1430.75
1497.62
1575.95
1667.12
1772.45
1893.29
2030.72
2185.66
2358.62
2549.67
2758.24
2983.22
3223.07
3476.01
3741.17
4012.55
4285.7
4559.44
4831.11
5096.49
5352.21
5594.55
5823.88
6033.43
6215.21
6367.97
6493.47
6594.33
6675.85
6773.01
6835.27
6837.22
6816.76
6778.99
6714.48
6629.15
6587.45
6480.61
6384.87
6247.19
6071.41
5904.8
5816.7
5657.89
5434.65
5231.7
5037.64
4849.5
4676.04
4496.48
4307.25
4118.19
3925.96
3734.33
3560.63
3397.17
3255.76
3116.6
2969.02
2820.7
2679.5
2566.94
2443.3
2322.57
2237.59
2131.02
2010.73
1918.72
1814.46
1704.59
1642.03
1524.31
1434.44
1359.7
1289.06
1224.78
1166.69
1108.81
1047.1
990.669
939.019
888.603
842.506
800.223
759.283
720.72
685.754
651.436
618.865
584.405
552.137
524.005
495.308
468.824
445.131
422.273
400.787
379.928
360.788
342.227
324.836
310.231
293.886
279.435
265.332
252.978
239.942
227.843
216.665
205.942
195.685
186.012
177.142
168.633
160.623
152.869
145.036
138.117
131.534
124.97
118.758
113.409
108.469
103.438
98.662
93.6796
89.4085
85.3014
81.5552
77.3483
73.7639
70.3817
67.253
64.2601
61.4122
58.5065
56.0531
53.1081
50.7537
48.5535
46.306
44.3414
42.5259
40.354
38.7152
37.1349
35.5805
34.3001
32.5868
31.1253
29.7761
28.5676
27.2791
25.9036
24.9399
23.8631
22.8572
1206.94
1206.95
1206.96
1206.98
1207.02
1207.08
1207.17
1207.27
1207.39
1207.58
1207.81
1208.09
1208.35
1208.59
1208.86
1209.17
1209.54
1209.95
1210.46
1211.09
1211.87
1212.83
1214.01
1215.48
1217.3
1219.63
1222.62
1226.42
1231.22
1237.25
1244.74
1254.02
1265.48
1279.57
1296.78
1317.69
1342.96
1373.39
1409.85
1453.35
1504.98
1565.92
1637.45
1720.91
1817.67
1929.02
2056.16
2200.12
2361.65
2541.12
2738.58
2953.35
3184.36
3429.85
3687.71
3955.38
4229.7
4508.1
4786.46
5061.18
5329.42
5588.3
5833.94
6063.45
6274.94
6467.38
6638.06
6782.44
6899.13
6988.83
7053.01
7095.6
7137.32
7151.77
7123.49
7075.17
7010.19
6922.77
6816.86
6720.66
6601.9
6483.59
6333.1
6153.48
5975.49
5839.44
5666.87
5462.44
5264.61
5072.35
4880.73
4696.9
4505.89
4317.5
4129.76
3938.27
3749.32
3574.11
3409.4
3259.37
3119.68
2972.45
2824.67
2682.64
2563.96
2440.12
2321.82
2231.63
2125.28
2008
1912.79
1809.28
1702.18
1621.55
1520.17
1435.21
1360.49
1290.02
1225.38
1165.7
1106.63
1046.48
990.636
938.701
889.021
842.929
800.415
759.381
720.665
685.099
650.457
616.965
583.125
551.541
523.381
495.196
468.931
445.097
422.278
400.774
379.989
360.758
342.248
324.852
309.59
293.693
279.187
265.189
252.709
239.796
227.744
216.57
205.864
195.629
185.964
177.007
168.525
160.506
152.737
145.002
138.04
131.45
124.945
118.765
113.336
108.307
103.288
98.4938
93.6034
89.2872
85.178
81.4273
77.317
73.7043
70.3352
67.2027
64.198
61.3441
58.4596
55.9334
53.0887
50.7142
48.5105
46.2808
44.2984
42.4507
40.3361
38.6626
37.0738
35.5125
34.1614
32.5214
31.0819
29.7362
28.5084
27.2385
25.8917
24.8879
23.8112
22.8222
1340.31
1340.17
1340.07
1340.01
1340.01
1340.06
1340.15
1340.29
1340.45
1340.7
1341
1341.28
1341.55
1341.84
1342.21
1342.63
1343.15
1343.79
1344.56
1345.55
1346.8
1348.39
1350.41
1352.93
1356.15
1360.27
1365.49
1372.09
1380.4
1390.73
1403.5
1419.18
1438.34
1461.66
1489.89
1523.84
1564.38
1612.58
1669.61
1736.74
1815.27
1906.47
2011.73
2132.32
2269.31
2423.64
2595.96
2786.51
2994.89
3220.44
3461.95
3717.56
3984.78
4261.2
4543.88
4829.59
5114.5
5395.97
5670.42
5934.53
6185.51
6420.96
6638.1
6834.61
7009.36
7161.25
7289.45
7391.91
7467.55
7516.9
7541.08
7542.94
7534.85
7504
7442.07
7362.43
7267.52
7154.19
7025.1
6893.26
6753.43
6609.74
6442.19
6253
6062.78
5894.94
5709.53
5509.06
5310.49
5114.43
4917.63
4724.69
4526.83
4335.75
4146.61
3955.27
3767.47
3590.88
3424.47
3269.84
3126.39
2978.28
2830.59
2688.4
2564.3
2440.11
2322.91
2227.62
2121.05
2006.22
1908.25
1805.37
1700.93
1612.13
1519.14
1436.75
1361.96
1291.45
1226.36
1165.44
1105.63
1046.5
991.057
939.056
889.678
843.543
800.762
759.61
720.743
684.703
649.75
615.778
582.418
551.231
523.005
495.19
469.1
445.16
422.355
400.827
380.094
360.79
342.314
324.917
309.21
293.587
279.038
265.109
252.517
239.697
227.685
216.512
205.822
195.601
185.939
176.935
168.456
160.418
152.644
144.982
137.991
131.392
124.93
118.777
113.284
108.185
103.17
98.3663
93.5453
89.2015
85.0877
81.3257
77.2896
73.6642
70.3007
67.162
64.148
61.2866
58.4193
55.8423
53.0732
50.6874
48.4767
46.2598
44.2624
42.3874
40.3204
38.6218
37.0238
35.4546
34.0552
32.467
31.0433
29.7009
28.4591
27.203
25.88
24.8449
23.7703
22.7943
1501.23
1500.84
1500.59
1500.46
1500.43
1500.48
1500.6
1500.81
1501.08
1501.34
1501.62
1501.91
1502.23
1502.66
1503.25
1503.96
1504.79
1505.84
1507.17
1508.83
1510.99
1513.79
1517.35
1521.89
1527.71
1535.09
1544.38
1556
1570.43
1588.23
1610.05
1636.59
1668.64
1707.17
1753.19
1807.82
1872.19
1947.64
2035.52
2137.24
2254.1
2387.2
2537.64
2706.19
2893.17
3098.65
3322.13
3562.66
3818.45
4087.71
4367.84
4656.24
4949.44
5244.47
5538.26
5827.42
6108.55
6379.15
6636.09
6876.81
7099.3
7301.35
7481.52
7638.49
7771.11
7878.89
7961.96
8019.9
8052.06
8058.78
8041.55
8002.37
7948.86
7875.74
7779.06
7666.75
7540.92
7400.09
7246.1
7086.02
6921.96
6752.94
6566.58
6364.65
6161.39
5970.68
5772.75
5568.36
5364.64
5162.24
4959.29
4758.38
4555.3
4360.07
4168.09
3976.03
3788.34
3610.31
3441.87
3283.78
3135.95
2986.36
2838.39
2695.97
2567.67
2442.88
2325.72
2225.68
2118.5
2005.55
1905.31
1802.95
1700.8
1609.04
1520.07
1438.89
1363.93
1293.28
1227.7
1165.82
1105.55
1047.03
991.813
939.795
890.521
844.31
801.257
759.975
720.957
684.524
649.303
615.121
582.104
551.157
522.846
495.288
469.327
445.307
422.495
400.938
380.241
360.879
342.425
325.026
309.037
293.557
278.974
265.083
252.39
239.639
227.659
216.486
205.807
195.596
185.936
176.906
168.417
160.357
152.583
144.975
137.965
131.355
124.925
118.795
113.253
108.097
103.08
98.2708
93.5021
89.1415
85.023
81.245
77.2667
73.6378
70.2754
67.1287
64.1071
61.2386
58.3853
55.7744
53.0616
50.6691
48.4501
46.2427
44.2326
42.3356
40.3072
38.5899
36.9822
35.4056
33.9726
32.4214
31.0091
29.6698
28.4177
27.1716
25.8687
24.8095
23.7378
22.7718
1692.81
1692.39
1692.16
1692.08
1692.11
1692.22
1692.42
1692.71
1693.1
1693.44
1693.8
1694.16
1694.64
1695.33
1696.27
1697.44
1698.89
1700.74
1703.12
1706.17
1710.14
1715.27
1721.84
1730.22
1740.82
1754.13
1770.74
1791.25
1816.39
1847.03
1884.12
1928.69
1981.85
2044.78
2118.76
2205.17
2305.36
2420.73
2552.52
2701.87
2869.65
3056.31
3262.09
3486.67
3729.21
3988.34
4262.1
4548.22
4843.84
5146.08
5451.75
5757.65
6060.42
6357.07
6644.82
6920.48
7181.64
7426.31
7652.17
7857.42
8041.01
8201.23
8337.42
8449.02
8535.65
8596.69
8633.18
8645.38
8633.19
8597.01
8538.5
8459.27
8364.15
8251.83
8120.99
7976.39
7820.01
7651.51
7472.22
7286.71
7098.17
6905.07
6699.69
6483.59
6266.88
6058.16
5847.84
5635.6
5424.2
5214.25
5004.65
4796.66
4588.84
4388.92
4193.38
3999.81
3811.42
3631.77
3461.05
3299.8
3147.79
2996.46
2847.87
2705
2573.58
2447.9
2330.02
2225.74
2117.67
2006.03
1904.02
1802.02
1701.72
1609.31
1522.17
1441.48
1366.29
1295.42
1229.35
1166.75
1106.18
1047.95
992.826
940.781
891.516
845.206
801.893
760.473
721.304
684.538
649.098
614.849
582.068
551.272
522.872
495.482
469.611
445.524
422.693
401.102
380.428
361.02
342.577
325.174
309.012
293.59
278.979
265.102
252.318
239.618
227.665
216.489
205.816
195.611
185.953
176.907
168.402
160.322
152.547
144.981
137.957
131.336
124.93
118.819
113.238
108.038
103.014
98.2008
93.4719
89.1011
84.9783
81.1818
77.2488
73.6214
70.2576
67.1019
64.074
61.1992
58.3574
55.7246
53.0539
50.657
48.4294
46.2293
44.2083
42.294
40.2964
38.5651
36.9475
35.3643
33.9077
32.383
30.9789
29.6422
28.3828
27.1434
25.8582
24.7806
23.712
22.7534
1920.25
1920.1
1920.05
1920.1
1920.23
1920.43
1920.72
1921.09
1921.53
1922.05
1922.58
1923.22
1924.15
1925.36
1926.9
1928.91
1931.55
1934.98
1939.47
1945.34
1952.9
1962.57
1974.88
1990.42
2009.82
2033.89
2063.46
2099.46
2143.01
2195.3
2257.6
2331.29
2417.76
2518.32
2634.41
2767.32
2918.26
3088.18
3277.71
3487.03
3716.01
3963.86
4229.36
4510.69
4805.62
5111.33
5424.72
5742.56
6061.54
6378.3
6689.81
6993.09
7285.32
7564.13
7827.28
8072.46
8298.27
8503.06
8685.79
8845.41
8981.68
9093.55
9180.88
9243.28
9280.95
9294.16
9283.82
9250.38
9194.36
9116.44
9017.92
8900.46
8767.3
8619.06
8455.75
8280.57
8095.05
7899.82
7696.04
7486.82
7275.05
7059.6
6835.93
6605.3
6375.21
6151.25
5928.78
5707.02
5486.88
5268.93
5052.52
4838.08
4625.64
4420.91
4221.55
4025.88
3836.11
3654.6
3481.46
3317.19
3161.42
3008.21
2858.73
2715.19
2581.43
2454.63
2335.55
2227.56
2118.42
2007.59
1904.23
1802.49
1703.56
1611.33
1524.98
1444.41
1368.96
1297.82
1231.27
1168.09
1107.3
1049.17
994.042
941.944
892.638
846.214
802.658
761.097
721.775
684.726
649.112
614.858
582.236
551.537
523.05
495.763
469.945
445.802
422.942
401.314
380.653
361.209
342.766
325.357
309.088
293.674
279.039
265.161
252.293
239.631
227.699
216.518
205.845
195.644
185.988
176.929
168.408
160.308
152.533
144.998
137.964
131.333
124.944
118.85
113.239
108.002
102.969
98.1519
93.4532
89.0764
84.9494
81.1336
77.2361
73.6128
70.2461
67.0811
64.0479
61.1677
58.3356
55.6892
53.0497
50.6498
48.4138
46.2193
44.1891
42.2615
40.2881
38.546
36.9184
35.3298
33.8563
32.3507
30.9524
29.6179
28.3532
27.1183
25.8486
24.7572
23.6916
22.7384
2191.93
2191.61
2191.47
2191.47
2191.59
2191.84
2192.21
2192.67
2193.18
2193.86
2194.79
2196.02
2197.72
2199.89
2202.75
2206.61
2211.75
2218.45
2227.23
2238.63
2253.21
2271.65
2294.76
2323.46
2358.79
2401.92
2454.06
2516.53
2590.78
2678.33
2780.72
2899.45
3035.86
3191.21
3366.49
3562.26
3778.9
4016.22
4273.37
4549.01
4841.44
5148.43
5467.08
5794.33
6126.85
6461.05
6793.31
7120.45
7439.52
7747.39
8041.68
8320.12
8581.11
8822.79
9043.86
9243.28
9420.52
9574.45
9704.82
9811.44
9894.6
9953.58
9988.9
10000.5
9988.53
9953.99
9897.73
9820.04
9721.98
9604.28
9468
9314.9
9147.28
8966.55
8773.3
8569.89
8357.53
8137.45
7910.84
7679.84
7446.79
7211.15
6970.4
6725.7
6482.76
6245.38
6011.28
5779.6
5550.55
5324.67
5101.53
4881.16
4664.2
4454.77
4251.53
4053.39
3861.77
3678.17
3502.55
3335.41
3176.29
3021.16
2870.58
2726.22
2590.61
2462.54
2342
2230.85
2120.53
2010.11
1905.76
1804.15
1706.18
1614.27
1528.23
1447.6
1371.85
1300.42
1233.4
1169.76
1108.77
1050.6
995.421
943.245
893.867
847.318
803.537
761.833
722.36
685.069
649.317
615.077
582.56
551.921
523.354
496.118
470.327
446.131
423.235
401.57
380.913
361.438
342.99
325.571
309.233
293.799
279.141
265.253
252.31
239.675
227.758
216.569
205.893
195.694
186.038
176.97
168.431
160.314
152.537
145.025
137.985
131.343
124.967
118.886
113.253
107.986
102.942
98.1209
93.4448
89.0643
84.9333
81.0984
77.2288
73.6104
70.2401
67.0659
64.0283
61.1432
58.3193
55.6648
53.0489
50.6466
48.4029
46.2126
44.1744
42.2367
40.2823
38.5315
36.8945
35.3014
33.8153
32.3235
30.9294
29.5965
28.3281
27.0959
25.8399
24.7384
23.6754
22.7261
2516.35
2515.4
2514.93
2514.79
2514.88
2515.19
2515.71
2516.41
2517.25
2518.4
2520.11
2522.45
2525.62
2529.88
2535.69
2543.5
2553.79
2567.23
2584.62
2606.84
2634.87
2669.83
2712.92
2765.46
2828.95
2904.94
2995.03
3100.91
3224.19
3366.38
3528.82
3712.55
3918.27
4146.3
4396.27
4667.35
4958.25
5266.9
5590.5
5926.15
6270.42
6620.29
6971.87
7321.42
7665.74
8001.23
8324.72
8633.83
8926.58
9200.65
9454.74
9687.39
9898.52
10086.7
10251.8
10393.7
10512.4
10607.5
10679.6
10728.7
10755.5
10759.8
10742
10702.8
10642.4
10561.7
10461.5
10342.2
10204.9
10050.2
9879.29
9693.88
9495.37
9285.65
9065.48
8836.66
8600.42
8358.1
8110.89
7860.42
7608.42
7355.04
7098.89
6841.16
6586.27
6336.98
6092.04
5850.82
5613.25
5379.82
5150.25
4924.42
4703.11
4489.27
4282.27
4081.44
3887.68
3701.85
3523.78
3353.94
3191.89
3034.84
2883.05
2737.74
2600.6
2471.17
2349.1
2235.27
2123.74
2013.41
1908.31
1806.76
1709.39
1617.74
1531.75
1450.95
1374.89
1303.15
1235.71
1171.66
1110.46
1052.2
996.928
944.653
895.182
848.501
804.513
762.666
723.044
685.547
649.684
615.457
583.003
552.397
523.757
496.536
470.749
446.504
423.568
401.864
381.205
361.704
343.245
325.812
309.425
293.959
279.277
265.374
252.364
239.748
227.84
216.641
205.958
195.759
186.104
177.025
168.469
160.338
152.557
145.063
138.016
131.366
124.999
118.929
113.279
107.985
102.93
98.1051
93.4457
89.0629
84.9279
81.0746
77.2267
73.6135
70.2393
67.0562
64.0148
61.1252
58.3083
55.6493
53.0511
50.6469
48.3963
46.2089
44.1639
42.2184
40.2787
38.521
36.875
35.2783
33.7827
32.3009
30.9096
29.578
28.3068
27.0762
25.8324
24.7236
23.6627
22.7161
2903.4
2902.2
2901.77
2901.78
2902.08
2902.67
2903.58
2904.85
2906.53
2908.86
2912.15
2916.92
2923.63
2932.77
2945.01
2961.1
2982.1
3009.18
3043.52
3086.54
3139.82
3205.01
3283.96
3378.22
3489.59
3619.83
3770.6
3943.39
4139.41
4359.38
4603.51
4871.27
5161.75
5473.24
5803.36
6149.39
6507.87
6874.85
7246.35
7618.53
7987.46
8349.75
8702.13
9041.07
9364.2
9669.19
9954.07
10217.4
10458.5
10676.5
10870.4
11040.6
11187.4
11310.6
11410.1
11487
11541.2
11573.4
11584.3
11574.4
11544.5
11494.4
11424.8
11336.6
11230
11106
10964.9
10807.4
10634.4
10446.5
10244.6
10030.5
9804.86
9569.73
9326.02
9075.13
8818.27
8556.66
8291.49
8024.1
7755.83
7487.26
7217.73
6948.44
6682.85
6423.06
6168.41
5918.47
5673.1
5432.78
5197.28
4966.47
4741.08
4523.23
4312.7
4109.16
3913.12
3725.04
3544.63
3372.31
3207.65
3048.78
2895.72
2749.41
2610.92
2480.15
2356.55
2240.46
2127.76
2017.29
1911.63
1810.05
1713.02
1621.5
1535.42
1454.39
1378.03
1305.97
1238.12
1173.72
1112.31
1053.92
998.529
946.141
896.562
849.744
805.565
763.577
723.81
686.137
650.185
615.961
583.539
552.943
524.235
497.004
471.206
446.912
423.935
402.192
381.525
362
343.527
326.076
309.65
294.148
279.442
265.52
252.451
239.846
227.942
216.73
206.039
195.838
186.182
177.094
168.522
160.376
152.591
145.11
138.058
131.4
125.039
118.978
113.313
107.998
102.932
98.1023
93.455
89.0704
84.9313
81.0609
77.23
73.6215
70.243
67.0519
64.007
61.1133
58.3022
55.6408
53.0561
50.6502
48.3934
46.2081
44.1573
42.2057
40.2774
38.5139
36.8595
35.26
33.7569
32.2823
30.8928
29.562
28.2887
27.0592
25.8261
24.7121
23.6529
22.7082
3370.05
3369.54
3369.72
3370.25
3371.03
3372.21
3373.96
3376.47
3380.14
3385.35
3392.75
3403.2
3417.64
3437.28
3463.23
3496.9
3539.99
3594.21
3661.46
3743.75
3843.25
3962.03
4102.11
4265.21
4452.8
4666.07
4905.78
5171.96
5463.97
5780.54
6119.64
6478.36
6853.29
7240.46
7635.45
8033.84
8431.2
8823.03
9205.66
9575.39
9929.46
10265
10579.7
10871.9
11140.6
11385
11604.4
11798.7
11968.1
12112.7
12232.6
12329
12402.3
12453.5
12482.8
12491.3
12479.4
12448.2
12398.4
12330.9
12245.7
12143.8
12025.6
11891.7
11742.5
11578.8
11400.6
11208.9
11004.4
10787.3
10558.5
10319.4
10070.9
9814.12
9550.51
9281.09
9006.92
8729.16
8448.94
8167.41
7885.64
7604.53
7323.8
7044.69
6769.95
6501.18
6238.16
5980.58
5728.38
5481.99
5241.25
5006.02
4776.94
4555.55
4341.84
4135.69
3937.39
3747.14
3564.57
3390
3223.09
3062.52
2908.23
2760.88
2621.19
2489.13
2364.09
2246.12
2132.3
2021.55
1915.45
1813.77
1716.9
1625.38
1539.15
1457.86
1381.2
1308.82
1240.6
1175.87
1114.25
1055.71
1000.19
947.68
897.984
851.028
806.673
764.548
724.642
686.819
650.789
616.558
584.145
553.542
524.769
497.512
471.692
447.35
424.33
402.549
381.869
362.321
343.831
326.361
309.9
294.362
279.631
265.688
252.568
239.968
228.063
216.835
206.134
195.931
186.272
177.174
168.587
160.428
152.638
145.165
138.11
131.444
125.087
119.032
113.356
108.022
102.945
98.1109
93.4717
89.0855
84.9422
81.0561
77.2382
73.6337
70.2512
67.0526
64.0045
61.1068
58.3005
55.6382
53.0638
50.6564
48.394
46.21
44.1542
42.1976
40.2782
38.5097
36.8478
35.2458
33.7367
32.2672
30.8789
29.5484
28.2736
27.0446
25.8209
24.7034
23.6455
22.702
3946.48
3945.9
3946.32
3947.21
3948.59
3950.85
3954.42
3959.92
3968.26
3980.4
3997.64
4021.44
4053.46
4095.92
4150.98
4220.9
4307.98
4414.58
4543.26
4696.25
4875.69
5083.27
5320.01
5586.79
5883.36
6208.56
6560.55
6936.61
7332.81
7744.79
8167.72
8597.02
9027.75
9454.28
9871.86
10276.1
10663.4
11030.7
11376.1
11697.2
11992.7
12261.2
12502.3
12716.3
12903.2
13063.6
13197.7
13306.7
13391.5
13452.6
13491.2
13508.2
13504.5
13481.7
13440.5
13381.5
13305.5
13213.4
13106.1
12984.2
12847.9
12698.5
12536
12361
12173.7
11974.7
11764.2
11542.7
11310.9
11068.9
10817.4
10557.5
10290.1
10015.7
9735.92
9451.5
9163.44
8872.73
8580.47
8287.7
7995.26
7704.21
7414.55
7127.53
6845.36
6569.27
6299.39
6035.44
5777.54
5526.04
5280.86
5041.88
4809.61
4585.2
4368.72
4160.23
3959.84
3767.59
3583.08
3406.55
3237.72
3075.63
2920.19
2771.85
2631.08
2497.82
2371.48
2251.93
2137.09
2025.98
1919.5
1817.71
1720.86
1629.26
1542.83
1461.28
1384.32
1311.65
1243.08
1178.06
1116.23
1057.53
1001.88
949.244
899.425
852.333
807.815
765.558
725.522
687.569
651.471
617.221
584.8
554.178
525.342
498.049
472.2
447.811
424.748
402.93
382.234
362.662
344.153
326.662
310.169
294.595
279.84
265.875
252.709
240.109
228.199
216.954
206.242
196.036
186.373
177.265
168.663
160.491
152.695
145.228
138.169
131.497
125.141
119.091
113.406
108.056
102.969
98.1291
93.4951
89.1073
84.9595
81.0594
77.2514
73.6501
70.2634
67.0582
64.0068
61.1055
58.303
55.6403
53.0739
50.6651
48.3977
46.2143
44.1542
42.1936
40.2809
38.5083
36.8396
35.2353
33.7214
32.2553
30.8675
29.5371
28.261
27.0325
25.817
24.6971
23.6401
22.6973
4671.85
4670.52
4671.01
4672.57
4675.52
4680.76
4689.36
4702.78
4722.92
4751.93
4792.38
4846.87
4918.33
5009.99
5125.05
5266.67
5437.41
5639.4
5874.44
6143.84
6447.87
6785.86
7155.91
7555.41
7980.35
8425.74
8885.88
9355.03
9826.81
10294.8
10753.2
11197.9
11623.9
12027.2
12404.6
12753.9
13073.8
13363.8
13623.4
13852.7
14052
14221.5
14362.3
14476.1
14563.4
14625.3
14663.4
14679.2
14674
14648.7
14604.8
14542.8
14464.1
14369.9
14261.6
14139.3
14003.9
13856.1
13696.4
13525.6
13343.9
13152.4
12951
12740.2
12520
12290.9
12053
11806.7
11552
11289.6
11019.7
10743
10460.6
10172.7
9880.42
9584.49
9285.94
8985.49
8684.28
8383.09
8082.74
7784.3
7488.03
7195.1
6907.29
6625.6
6350.43
6081.57
5819.19
5563.65
5314.92
5072.97
4838.1
4611.24
4392.51
4182.04
3979.84
3785.84
3599.7
3421.52
3251.09
3087.7
2931.24
2782.01
2640.28
2505.95
2378.49
2257.63
2141.89
2030.38
1923.59
1821.66
1724.75
1633.03
1546.39
1464.59
1387.36
1314.41
1245.52
1180.23
1118.2
1059.35
1003.57
950.803
900.862
853.636
808.969
766.588
726.431
688.365
652.206
617.928
585.487
554.835
525.941
498.606
472.724
448.288
425.184
403.329
382.613
363.019
344.489
326.977
310.453
294.845
280.065
266.077
252.872
240.268
228.35
217.086
206.361
196.151
186.484
177.364
168.748
160.564
152.761
145.299
138.236
131.558
125.202
119.155
113.462
108.097
103
98.1556
93.5244
89.1347
84.9825
81.0697
77.2691
73.6701
70.2795
67.0682
64.0136
61.1088
58.3093
55.6466
53.0863
50.6762
48.4042
46.221
44.1571
42.193
40.2856
38.5092
36.8344
35.2281
33.7101
32.2462
30.8585
29.5279
28.2509
27.0226
25.8142
24.6929
23.6365
22.6941
5607.06
5604.85
5606.73
5611.49
5620.2
5634.99
5658.34
5693.45
5744.4
5815.26
5910.25
6033.59
6189.24
6381.18
6612.6
6885.52
7200.89
7557.9
7954.15
8386.69
8851.07
9341.5
9851.11
10372.4
10897.7
11419.4
11929.8
12423
12893.5
13336.5
13748.8
14128
14471.5
14779.5
15051.1
15287.4
15489.2
15658.5
15795.7
15902.9
15981.3
16033.2
16059.6
16062.8
16043.3
16002.7
15943.5
15866.7
15773.5
15665
15542.8
15407.3
15259.5
15100.5
14931.4
14752.6
14564.6
14368
14162.7
13949.9
13729.6
13502.4
13268.3
13027.5
12780.2
12526.3
12266.2
11999.9
11727.3
11448.8
11164.8
10875.6
10582.1
10284.3
9983.11
9679.2
9373.41
9066.39
8759.18
8452.35
8146.77
7843.47
7542.87
7246.03
6954.42
6668.92
6390.05
6117.76
5852.2
5593.75
5342.45
5098.31
4861.55
4632.89
4412.47
4200.46
3996.82
3801.44
3613.99
3434.51
3262.82
3098.38
2941.07
2791.08
2648.55
2513.31
2384.88
2262.97
2146.44
2034.55
1927.51
1825.44
1728.44
1636.58
1549.75
1467.71
1390.23
1317.03
1247.87
1182.33
1120.13
1061.12
1005.22
952.329
902.27
854.918
810.115
767.618
727.351
689.186
652.97
618.659
586.189
555.503
526.553
499.174
473.255
448.776
425.631
403.741
383.003
363.387
344.836
327.301
310.748
295.108
280.303
266.293
253.053
240.441
228.511
217.229
206.491
196.275
186.602
177.472
168.842
160.646
152.836
145.376
138.31
131.625
125.269
119.224
113.523
108.145
103.04
98.1893
93.559
89.1671
85.0103
81.0863
77.2911
73.6936
70.2992
67.0825
64.0245
61.1163
58.319
55.6563
53.1007
50.6894
48.4133
46.2298
44.1626
42.1954
40.292
38.5123
36.8321
35.2238
33.7024
32.2398
30.8517
29.5207
28.2429
27.0149
25.8126
24.6905
23.6345
22.6922
6854.14
6856.68
6867.4
6885.06
6913.23
6957.18
7022.6
7116.13
7244.7
7415.12
7632.02
7899.88
8222
8598.9
9028.87
9507.74
10029.2
10585.4
11166.5
11761.5
12360.1
12952.5
13529.2
14082.2
14604.8
15091.6
15538.5
15943.4
16305.1
16623.2
16898.5
17131.2
17322.7
17476
17593.4
17676.9
17729.2
17752.9
17749.6
17721.7
17671.6
17601.4
17512.4
17406
17283.1
17145.7
16995.5
16833.5
16660.2
16477.2
16285.6
16085.3
15877.5
15662.9
15441.8
15215.2
14983.1
14745.6
14502.8
14255.6
14004
13748.1
13487.8
13223.2
12954.6
12681.8
12404.7
12123.3
11837.5
11547.5
11253.5
10955.8
10654.8
10350.7
10044.1
9735.5
9425.6
9115.01
8804.61
8494.82
8186.61
7880.86
7578.13
7279.36
6985.8
6698.25
6417.33
6143.04
5875.65
5615.46
5362.61
5117.13
4879.23
4649.45
4427.95
4214.92