/*--------------------------------*- C++ -*----------------------------------*\
| =========                 |                                                 |
| \\      /  F ield         | OpenFOAM: The Open Source CFD Toolbox           |
|  \\    /   O peration     | Version:  1.7.0                                 |
|   \\  /    A nd           | Web:      www.OpenFOAM.com                      |
|    \\/     M anipulation  |                                                 |
\*---------------------------------------------------------------------------*/
FoamFile
{
    version     2.0;
    format      ascii;
    class       volScalarField;
    location    "0.252";
    object      mut;
}
// * * * * * * * * * * * * * * * * * * * * * * * * * * * * * * * * * * * * * //

dimensions      [1 -1 -1 0 0 0 0];

internalField   nonuniform List<scalar> 
14800
(
0.00106286
0.00106276
0.00106266
0.00106258
0.00106249
0.00106242
0.00106235
0.00106232
0.00106227
0.00106221
0.00106218
0.00106219
0.00106222
0.00106225
0.00106229
0.00106235
0.00106242
0.00106248
0.00106255
0.00106264
0.00106276
0.00106287
0.00106299
0.00106312
0.00106329
0.00106351
0.00106379
0.00106414
0.00106456
0.00106508
0.00106573
0.00106654
0.00106753
0.00106876
0.00107028
0.00107214
0.00107439
0.00107712
0.00108039
0.00108433
0.00108905
0.00109469
0.0011014
0.00110934
0.00111869
0.00112967
0.00114252
0.00115752
0.00117497
0.00119519
0.00121856
0.00124548
0.00127646
0.00131203
0.00135261
0.00139888
0.00145038
0.00144601
0.00154548
0.00169495
0.00180452
0.0018681
0.00192257
0.00196265
0.00199697
0.00209705
0.00220298
0.00234132
0.00247958
0.00260167
0.00271002
0.00281615
0.00279328
0.00286633
0.00301244
0.0031342
0.00322969
0.00332741
0.00342148
0.00313934
0.00344201
0.00351894
0.00361795
0.00375797
0.00370964
0.0035086
0.00347014
0.00401477
0.00371635
0.00418574
0.00416556
0.00419947
0.00471792
0.00427774
0.0043483
0.00431759
0.00447608
0.00464065
0.00464282
0.00434873
0.00484657
0.00468983
0.00468253
0.00453903
0.00497832
0.00468816
0.00473423
0.00468917
0.00473391
0.00480216
0.00477393
0.00481665
0.00475813
0.00454267
0.00488646
0.00493895
0.0050366
0.0049884
0.00501212
0.00500377
0.00492302
0.00498253
0.0049891
0.00493073
0.0050789
0.00498892
0.00501472
0.00499918
0.00506772
0.00513413
0.00506169
0.00499356
0.00501096
0.00505878
0.00503218
0.00501712
0.00500976
0.00501169
0.00505434
0.00501677
0.00500319
0.00498365
0.00498087
0.0049758
0.0049185
0.00497806
0.00495745
0.00503363
0.00494987
0.0049518
0.0049481
0.00492987
0.00493432
0.00491805
0.00492154
0.00503748
0.004953
0.00489686
0.00487492
0.0048738
0.00487212
0.00485418
0.00484351
0.00482851
0.00482432
0.00502671
0.00485187
0.0047929
0.00480263
0.00477788
0.00479776
0.00477165
0.00474683
0.00475257
0.00476043
0.00472052
0.00471549
0.00470141
0.00469286
0.00469423
0.00468205
0.00474439
0.00466775
0.00465178
0.00463857
0.00462282
0.00461402
0.00461595
0.00461256
0.00458885
0.00455119
0.00457978
0.0045386
0.00453979
0.00453792
0.00451718
0.00450268
0.00450097
0.0044951
0.00448777
0.0010593
0.00105923
0.00105916
0.00105909
0.00105903
0.00105896
0.00105891
0.00105889
0.00105886
0.00105881
0.00105878
0.00105881
0.00105887
0.00105893
0.00105898
0.00105904
0.0010591
0.00105915
0.00105921
0.0010593
0.00105942
0.00105955
0.00105968
0.00105982
0.00106001
0.00106027
0.00106059
0.00106098
0.00106143
0.00106199
0.00106268
0.00106354
0.00106459
0.00106589
0.00106749
0.00106945
0.00107182
0.00107467
0.00107808
0.00108217
0.00108705
0.00109286
0.00109975
0.00110787
0.00111742
0.0011286
0.00114165
0.00115685
0.00117451
0.00119498
0.00121862
0.00124583
0.00127714
0.00131312
0.0013542
0.00140104
0.00145413
0.00147603
0.0015758
0.0017091
0.00180685
0.00186851
0.00192706
0.00197263
0.00206089
0.00213727
0.0022318
0.00236038
0.00249101
0.00260929
0.00271589
0.00281588
0.00281569
0.00289105
0.00302983
0.0031468
0.00324032
0.00333629
0.00343108
0.00324402
0.00349674
0.00355534
0.0036452
0.00377468
0.00380416
0.00363817
0.00375293
0.00406744
0.00403394
0.00421939
0.00419769
0.00420691
0.00424384
0.00429142
0.00435545
0.00438329
0.00448269
0.00461873
0.00463485
0.0044872
0.00479578
0.00467614
0.00468196
0.00525811
0.00481842
0.00469269
0.00473855
0.00469557
0.00473841
0.00480493
0.00477905
0.00481463
0.00527556
0.00460198
0.00490567
0.00494045
0.00503677
0.00504412
0.005003
0.00500568
0.00492989
0.0049833
0.0049924
0.00496394
0.00501963
0.00499675
0.00500723
0.00499849
0.00506486
0.00512807
0.00505287
0.00500099
0.00503223
0.00505374
0.00502665
0.00501685
0.0050102
0.00500821
0.00505285
0.00501655
0.00499725
0.00498533
0.0049804
0.00497496
0.00492545
0.00497692
0.00495817
0.00503039
0.00495431
0.00495333
0.00494745
0.00492809
0.00492511
0.00491733
0.00491919
0.00503559
0.00494534
0.00489247
0.00487727
0.00487221
0.00486818
0.00485352
0.00484029
0.00482875
0.00482305
0.00501766
0.00484442
0.00479566
0.00480042
0.00478758
0.00478666
0.00477168
0.00474651
0.00475124
0.00474927
0.00472149
0.00471875
0.00469999
0.00469372
0.00469178
0.00468175
0.00471753
0.00466853
0.00465024
0.00463782
0.00462278
0.00461457
0.00461279
0.00460794
0.00458491
0.00457439
0.00457594
0.00454021
0.00453615
0.00453508
0.00451902
0.00450283
0.00449849
0.00449676
0.00448809
0.00105198
0.00105189
0.0010518
0.00105174
0.00105168
0.00105164
0.0010516
0.00105159
0.00105158
0.00105156
0.00105156
0.00105162
0.00105172
0.00105182
0.0010519
0.00105195
0.00105199
0.00105204
0.00105213
0.00105224
0.00105238
0.00105251
0.00105266
0.00105283
0.00105306
0.00105338
0.00105377
0.00105423
0.00105477
0.00105542
0.00105622
0.00105719
0.00105839
0.00105986
0.00106167
0.00106386
0.00106649
0.00106961
0.00107334
0.00107776
0.00108299
0.00108918
0.00109647
0.00110503
0.00111504
0.0011267
0.00114027
0.00115603
0.00117431
0.00119548
0.00121993
0.00124807
0.00128044
0.00131763
0.00136006
0.00140831
0.00146378
0.00151666
0.00161497
0.00172588
0.00180961
0.00187176
0.00193686
0.00202755
0.00211454
0.00218542
0.00227618
0.00239319
0.00251337
0.00262525
0.00272903
0.00282553
0.0028565
0.00293543
0.00306261
0.00317164
0.00326192
0.00335449
0.00344893
0.00339363
0.00357562
0.00361368
0.00369142
0.00380204
0.00388036
0.00379458
0.00396128
0.00410921
0.00421825
0.00422887
0.00421379
0.00422098
0.00424437
0.00432109
0.00436847
0.00442842
0.00448889
0.00458658
0.0046252
0.00462784
0.00473205
0.00466082
0.00467754
0.00529238
0.00475575
0.00470462
0.00474683
0.0047086
0.0047486
0.00481093
0.00478897
0.00481953
0.00504175
0.00472902
0.00493679
0.00494284
0.00502649
0.00503855
0.00498857
0.00497433
0.00494257
0.00498401
0.00499553
0.00499408
0.00500597
0.00500196
0.00499961
0.00499855
0.00505928
0.00511206
0.00504058
0.00501309
0.00505384
0.00504849
0.00502512
0.00501629
0.00501069
0.00500711
0.00504899
0.0050159
0.00499566
0.0049864
0.00498053
0.00497483
0.00493785
0.00497578
0.00496048
0.0050248
0.00495744
0.00495222
0.00494568
0.00492628
0.0049229
0.00491644
0.00491727
0.00502789
0.00493366
0.00488916
0.00487964
0.00487188
0.00486456
0.00485352
0.00483901
0.00482848
0.00482266
0.00499838
0.00483738
0.00479962
0.00479597
0.00479075
0.00477994
0.00476845
0.00474615
0.00474938
0.00474125
0.00472232
0.00471974
0.00470069
0.00469486
0.0046928
0.00468176
0.00469912
0.00466823
0.00464958
0.0046382
0.00462354
0.00461487
0.00461033
0.00460262
0.00458259
0.00458973
0.004572
0.00454126
0.0045341
0.00453357
0.00452069
0.00450301
0.00449766
0.00449775
0.00448756
0.0010413
0.00104124
0.00104119
0.00104116
0.00104113
0.00104111
0.0010411
0.0010411
0.0010411
0.00104112
0.00104115
0.00104122
0.00104134
0.00104147
0.00104158
0.00104167
0.00104174
0.00104181
0.00104192
0.00104206
0.00104223
0.0010424
0.0010426
0.00104284
0.00104315
0.00104352
0.00104398
0.00104455
0.00104523
0.00104602
0.00104699
0.00104816
0.00104959
0.00105134
0.00105347
0.00105603
0.00105904
0.00106258
0.00106679
0.00107174
0.00107753
0.00108433
0.00109228
0.00110155
0.00111234
0.00112489
0.00113947
0.00115636
0.00117593
0.0011986
0.00122478
0.00125491
0.00128949
0.00132902
0.0013739
0.00142457
0.00148248
0.00155137
0.00164443
0.00173897
0.00181623
0.0018836
0.0019562
0.0020557
0.00214577
0.00222724
0.00232175
0.00243116
0.00254217
0.00264805
0.002749
0.00284482
0.00290165
0.00298552
0.00310167
0.00320301
0.00328997
0.00337855
0.0034703
0.00351139
0.00363692
0.00366776
0.00373754
0.00383041
0.00391621
0.0039056
0.00405277
0.00412942
0.00424414
0.0042194
0.00422141
0.00423823
0.00429437
0.00434767
0.00438302
0.00444727
0.00449374
0.00456569
0.00461546
0.00468432
0.00468402
0.0046532
0.00467685
0.005006
0.00472643
0.0047211
0.00475709
0.00472562
0.00476253
0.00481904
0.0048024
0.00483064
0.00493136
0.00485926
0.00496266
0.00494396
0.0050073
0.00500974
0.00497763
0.00496321
0.00495702
0.00498619
0.00499674
0.00500803
0.00500266
0.00500259
0.00499548
0.00499937
0.00505186
0.0050895
0.00503124
0.00502729
0.00506377
0.00504479
0.00502512
0.00501632
0.00501086
0.00500701
0.00504363
0.00501419
0.0049953
0.00498712
0.0049809
0.00497503
0.00495141
0.00497577
0.0049635
0.0050171
0.00495827
0.00495152
0.0049434
0.00492577
0.00492198
0.00491537
0.00491582
0.00501325
0.0049231
0.00488715
0.00488106
0.00487164
0.00486275
0.0048529
0.00483853
0.00482836
0.00482295
0.00497091
0.00483141
0.0048023
0.00479219
0.00478973
0.00477677
0.004765
0.00474591
0.00474754
0.00473626
0.00472239
0.0047183
0.00470203
0.00469576
0.00469538
0.00468186
0.00468792
0.00466663
0.00464952
0.00463866
0.00462524
0.00461508
0.00460906
0.00459893
0.00458178
0.00459501
0.00456936
0.00454204
0.00453343
0.00453294
0.00452105
0.00450324
0.00449796
0.00449773
0.00448633
0.0010281
0.00102805
0.00102802
0.001028
0.00102799
0.00102799
0.001028
0.00102801
0.00102804
0.00102808
0.00102814
0.00102822
0.00102834
0.00102848
0.00102863
0.00102878
0.00102891
0.00102902
0.00102915
0.00102932
0.00102952
0.00102977
0.00103006
0.0010304
0.00103081
0.00103129
0.00103187
0.00103257
0.00103342
0.00103443
0.00103565
0.0010371
0.00103887
0.00104102
0.00104357
0.0010466
0.00105014
0.00105429
0.00105915
0.00106482
0.00107143
0.00107911
0.00108806
0.00109847
0.00111056
0.00112462
0.00114093
0.00115985
0.00118177
0.00120709
0.00123626
0.0012697
0.00130781
0.00135094
0.00139943
0.00145346
0.00151399
0.00158672
0.0016729
0.00175873
0.00183597
0.00191025
0.00198949
0.00208512
0.00217812
0.00226915
0.00236717
0.00247163
0.00257607
0.00267744
0.00277588
0.00287115
0.00294542
0.00303394
0.00314138
0.0032366
0.00332088
0.00340568
0.0034931
0.00357989
0.00367195
0.00370794
0.00377499
0.0038557
0.00393381
0.00396952
0.00408542
0.00413882
0.00421779
0.00421061
0.0042297
0.0042572
0.00432724
0.00436696
0.00439778
0.00445599
0.0044991
0.00455708
0.00460737
0.00468054
0.00465617
0.00465333
0.00468107
0.00482311
0.00472191
0.0047386
0.00476763
0.00474433
0.00477831
0.00482833
0.00481794
0.0048447
0.00490618
0.00494845
0.00497489
0.00494313
0.0049861
0.00498477
0.0049708
0.00496281
0.00496958
0.00498827
0.0049959
0.0050099
0.00500099
0.00500136
0.00499447
0.00500069
0.00504383
0.00506666
0.00502614
0.00503847
0.00506401
0.00504179
0.00502531
0.00501663
0.00501081
0.00500715
0.00503751
0.00501184
0.00499519
0.0049877
0.00498125
0.00497528
0.00496314
0.00497618
0.00496623
0.0050078
0.00495743
0.00495089
0.00494129
0.00492594
0.00492126
0.00491438
0.00491455
0.00499371
0.00491458
0.0048861
0.00488161
0.00487127
0.00486198
0.00485202
0.00483844
0.00482836
0.00482331
0.00493981
0.00482626
0.00480321
0.00478956
0.00478716
0.00477504
0.00476236
0.00474581
0.00474563
0.0047333
0.00472195
0.00471621
0.00470333
0.00469645
0.00469777
0.00468188
0.00468125
0.00466479
0.00464967
0.00463901
0.00462731
0.00461524
0.00460826
0.00459658
0.00458174
0.00459513
0.00456746
0.00454266
0.00453343
0.00453269
0.00452058
0.00450346
0.00449861
0.00449689
0.00448471
0.00101295
0.00101287
0.00101282
0.00101279
0.00101279
0.0010128
0.00101283
0.00101286
0.00101289
0.00101295
0.00101303
0.00101313
0.00101326
0.00101343
0.00101362
0.0010138
0.00101398
0.00101416
0.00101433
0.00101455
0.00101483
0.00101517
0.00101557
0.00101604
0.00101659
0.00101724
0.001018
0.00101889
0.00101997
0.00102127
0.00102283
0.00102468
0.00102689
0.00102952
0.00103264
0.00103629
0.00104055
0.0010455
0.00105124
0.00105792
0.00106567
0.00107466
0.00108512
0.00109729
0.00111146
0.00112793
0.00114706
0.00116919
0.00119473
0.00122407
0.00125757
0.00129555
0.00133828
0.00138602
0.00143885
0.00149672
0.00156013
0.00163278
0.00171361
0.00179548
0.00187468
0.00195412
0.00203757
0.00212949
0.00222274
0.00231718
0.00241538
0.0025159
0.00261556
0.00271346
0.00280952
0.00290359
0.00298744
0.00307871
0.00317949
0.00327015
0.0033524
0.00343408
0.0035169
0.00361408
0.00369039
0.0037365
0.00380383
0.00387764
0.00394799
0.00400491
0.00409804
0.00414483
0.00419651
0.00421036
0.00424108
0.00427668
0.00434555
0.00438152
0.00441265
0.00446391
0.00450599
0.00455607
0.00460196
0.00465839
0.00464413
0.00465846
0.00468806
0.00475471
0.00473007
0.00475427
0.00477733
0.00476283
0.00479433
0.00483793
0.00483399
0.00485937
0.00490501
0.00498861
0.00497417
0.00494087
0.00496816
0.00496877
0.00496668
0.00496526
0.00497821
0.00498907
0.00499387
0.00500626
0.00499955
0.00500014
0.00499525
0.00500224
0.00503625
0.00504815
0.00502419
0.00504444
0.00505905
0.00503886
0.00502522
0.00501687
0.00501065
0.00500719
0.0050312
0.00500931
0.00499506
0.00498817
0.0049815
0.00497541
0.00497145
0.00497625
0.00496799
0.00499774
0.00495566
0.00494992
0.00493953
0.0049262
0.00492058
0.00491364
0.00491329
0.00497255
0.00490784
0.00488561
0.00488153
0.00487081
0.00486158
0.00485127
0.00483852
0.00482839
0.00482344
0.00490932
0.0048217
0.00480277
0.00478785
0.0047844
0.00477361
0.00476059
0.0047458
0.00474372
0.00473152
0.00472135
0.00471455
0.00470436
0.00469698
0.00469911
0.00468175
0.00467716
0.0046633
0.00464983
0.00463926
0.00462923
0.00461532
0.00460748
0.00459503
0.00458194
0.00459291
0.0045659
0.00454317
0.00453367
0.00453247
0.00451983
0.00450367
0.00449913
0.00449553
0.00448301
0.000996035
0.000995937
0.000995884
0.000995869
0.000995884
0.000995922
0.000995976
0.000996038
0.000996102
0.000996187
0.000996311
0.000996463
0.000996642
0.000996838
0.000997037
0.000997234
0.000997444
0.000997675
0.000997916
0.000998206
0.000998572
0.00099903
0.000999567
0.0010002
0.00100093
0.00100178
0.00100279
0.00100398
0.00100539
0.00100708
0.00100909
0.00101146
0.00101424
0.00101751
0.00102133
0.0010258
0.00103101
0.00103705
0.00104403
0.00105213
0.00106155
0.00107252
0.00108531
0.00110018
0.00111747
0.00113756
0.00116077
0.00118744
0.0012179
0.00125244
0.00129129
0.00133467
0.0013826
0.0014352
0.0014924
0.00155406
0.00162031
0.00169287
0.00177086
0.00185095
0.00193139
0.0020133
0.0020983
0.0021878
0.00227945
0.00237303
0.00246883
0.00256557
0.00266131
0.00275594
0.00284939
0.0029415
0.00302921
0.00312077
0.00321603
0.00330318
0.00338381
0.003463
0.0035419
0.00363398
0.00370421
0.00375944
0.00382759
0.00389774
0.00396334
0.0040271
0.0041057
0.00415082
0.00419062
0.00421792
0.0042551
0.00429584
0.00435813
0.00439442
0.00442759
0.0044736
0.00451436
0.00455895
0.00459959
0.00464052
0.00464231
0.00466608
0.00469597
0.00473681
0.00474153
0.0047667
0.00478565
0.00477985
0.0048094
0.00484711
0.00484919
0.00487311
0.00490876
0.00499323
0.00496581
0.00493816
0.00495543
0.0049595
0.00496402
0.00496749
0.00498261
0.00498844
0.00499157
0.00500157
0.00499844
0.00499954
0.00499684
0.00500387
0.00502986
0.00503551
0.00502399
0.00504575
0.00505231
0.00503581
0.00502474
0.00501688
0.00501043
0.00500706
0.00502512
0.00500687
0.00499485
0.00498847
0.00498161
0.00497535
0.00497607
0.00497569
0.00496858
0.00498782
0.00495356
0.00494858
0.00493808
0.0049263
0.00491998
0.00491315
0.00491198
0.00495265
0.00490254
0.00488537
0.00488105
0.00487035
0.00486122
0.00485075
0.00483865
0.0048284
0.00482329
0.0048824
0.00481768
0.00480161
0.00478671
0.00478193
0.00477213
0.00475942
0.0047458
0.00474196
0.00473038
0.00472081
0.00471358
0.00470508
0.00469738
0.00469929
0.00468147
0.00467453
0.00466225
0.00464991
0.00463944
0.00463067
0.00461531
0.00460661
0.00459393
0.00458214
0.00458972
0.00456451
0.00454358
0.00453394
0.00453216
0.00451916
0.00450384
0.00449934
0.00449389
0.00448141
0.000977499
0.00097744
0.000977431
0.000977462
0.000977521
0.000977602
0.000977699
0.0009778
0.000977905
0.000978026
0.000978216
0.000978428
0.000978632
0.000978836
0.000979057
0.0009793
0.000979565
0.000979872
0.000980219
0.000980616
0.000981087
0.000981664
0.000982366
0.0009832
0.000984169
0.000985307
0.000986645
0.000988217
0.000990068
0.000992264
0.000994855
0.000997897
0.00100144
0.00100554
0.00101033
0.00101592
0.00102243
0.00103001
0.0010388
0.00104901
0.00106093
0.00107484
0.00109104
0.00110983
0.00113154
0.0011565
0.00118499
0.00121731
0.00125363
0.00129405
0.00133867
0.00138753
0.00144057
0.00149766
0.00155872
0.00162365
0.00169223
0.00176514
0.00184188
0.0019209
0.00200143
0.00208373
0.00216834
0.00225569
0.00234487
0.00243572
0.00252799
0.00262081
0.00271292
0.00280424
0.00289468
0.00298413
0.00307199
0.00316181
0.00325222
0.00333625
0.0034153
0.00349244
0.00356829
0.00365206
0.0037202
0.00378133
0.00384967
0.00391752
0.00398032
0.00404438
0.00411332
0.00415835
0.00419568
0.00423041
0.0042708
0.00431422
0.0043698
0.00440723
0.00444234
0.00448478
0.00452372
0.00456392
0.00460017
0.00463219
0.00464628
0.00467455
0.00470381
0.00473561
0.00475192
0.00477586
0.00479259
0.00479468
0.00482274
0.00485539
0.00486257
0.00488496
0.00491275
0.0049805
0.00495521
0.0049358
0.00494756
0.00495427
0.00496214
0.00496869
0.00498363
0.00498685
0.00498959
0.00499778
0.00499777
0.00499952
0.00499868
0.00500546
0.00502498
0.00502804
0.00502452
0.00504405
0.00504566
0.00503271
0.0050239
0.00501661
0.00501015
0.00500676
0.00501959
0.00500466
0.00499454
0.00498859
0.0049816
0.00497511
0.00497764
0.00497452
0.00496813
0.00497883
0.00495149
0.00494699
0.00493683
0.0049262
0.00491948
0.00491283
0.00491068
0.00493583
0.00489846
0.00488517
0.00488037
0.0048699
0.00486083
0.00485042
0.00483876
0.00482839
0.00482292
0.00486054
0.00481422
0.00480017
0.00478585
0.00477984
0.00477059
0.00475857
0.00474577
0.00474042
0.00472958
0.00472041
0.00471313
0.00470551
0.00469764
0.00469858
0.00468104
0.00467273
0.00466153
0.00464989
0.00463953
0.0046315
0.00461518
0.00460566
0.0045931
0.00458219
0.00458627
0.00456321
0.00454389
0.00453415
0.00453169
0.00451867
0.00450395
0.00449921
0.00449214
0.00447999
0.000957564
0.000957568
0.000957615
0.000957695
0.000957799
0.000957921
0.000958059
0.000958209
0.000958371
0.000958546
0.000958727
0.000958934
0.000959156
0.00095939
0.000959655
0.000959967
0.000960329
0.000960755
0.000961258
0.000961825
0.000962457
0.000963208
0.000964127
0.000965221
0.000966505
0.000968024
0.000969794
0.000971867
0.000974301
0.00097715
0.000980487
0.000984391
0.000988937
0.000994227
0.0010004
0.0010076
0.00101602
0.00102585
0.00103731
0.00105068
0.00106625
0.00108431
0.00110515
0.00112909
0.0011564
0.00118725
0.00122184
0.00126034
0.00130276
0.00134904
0.00139914
0.00145295
0.00151039
0.00157123
0.00163529
0.00170255
0.00177274
0.00184596
0.00192199
0.00200005
0.00207981
0.0021612
0.00224432
0.00232931
0.00241568
0.00250323
0.00259171
0.00268059
0.00276909
0.002857
0.00294418
0.00303051
0.00311635
0.00320314
0.00328908
0.00337015
0.00344745
0.00352267
0.00359609
0.00367303
0.00374026
0.00380425
0.00387193
0.00393783
0.00399859
0.00406049
0.00412264
0.00416812
0.00420677
0.00424555
0.00428734
0.0043317
0.00438204
0.00442027
0.00445664
0.00449661
0.00453359
0.00457023
0.0046033
0.0046315
0.00465308
0.00468295
0.00471115
0.00473905
0.00476007
0.00478239
0.00479838
0.00480712
0.00483403
0.00486252
0.00487362
0.00489447
0.00491601
0.0049637
0.00494583
0.00493425
0.00494329
0.00495136
0.00496074
0.00496897
0.00498257
0.00498492
0.00498815
0.00499535
0.00499753
0.00499992
0.00500051
0.00500696
0.00502159
0.00502418
0.00502518
0.00504092
0.00503987
0.0050297
0.00502278
0.0050161
0.00500982
0.00500636
0.0050148
0.00500274
0.00499416
0.00498852
0.00498144
0.00497473
0.00497715
0.00497294
0.00496696
0.0049712
0.00494968
0.00494533
0.00493569
0.00492593
0.0049191
0.00491262
0.00490943
0.00492276
0.00489541
0.00488492
0.0048796
0.00486946
0.00486041
0.00485018
0.00483881
0.00482833
0.00482239
0.00484399
0.00481132
0.00479873
0.00478511
0.00477807
0.00476905
0.00475787
0.00474568
0.00473913
0.00472896
0.00472014
0.00471295
0.00470571
0.00469775
0.0046973
0.00468052
0.00467142
0.004661
0.00464978
0.00463952
0.00463175
0.00461494
0.00460469
0.00459242
0.00458205
0.00458294
0.00456199
0.00454407
0.00453426
0.0045311
0.00451833
0.00450399
0.00449877
0.0044904
0.00447876
0.000936337
0.000936331
0.000936376
0.000936464
0.000936583
0.000936729
0.000936897
0.000937089
0.000937314
0.00093756
0.000937783
0.000938003
0.000938222
0.000938475
0.000938808
0.000939215
0.000939693
0.000940255
0.000940915
0.000941661
0.000942518
0.00094353
0.00094475
0.000946204
0.000947929
0.000949952
0.000952308
0.000955061
0.000958271
0.000962008
0.000966377
0.000971483
0.000977456
0.000984459
0.000992671
0.00100229
0.00101354
0.00102669
0.00104199
0.00105975
0.00108024
0.0011037
0.00113034
0.00116038
0.00119398
0.00123119
0.00127204
0.00131653
0.00136457
0.00141601
0.00147075
0.0015286
0.0015894
0.00165292
0.00171905
0.0017877
0.00185863
0.00193176
0.00200701
0.00208397
0.00216241
0.0022422
0.0023233
0.0024057
0.00248913
0.00257335
0.00265815
0.00274323
0.00282815
0.00291257
0.00299638
0.00307944
0.00316224
0.00324538
0.00332717
0.00340535
0.00348062
0.00355389
0.00362524
0.00369743
0.00376383
0.00382859
0.00389491
0.00395886
0.0040178
0.00407687
0.00413418
0.0041802
0.00422094
0.00426192
0.00430415
0.00434831
0.00439484
0.00443335
0.00447029
0.00450843
0.00454361
0.00457749
0.00460844
0.00463544
0.00466099
0.0046909
0.00471793
0.00474352
0.0047662
0.00478717
0.00480337
0.0048173
0.00484325
0.00486846
0.00488227
0.00490159
0.0049184
0.00494943
0.00493904
0.0049336
0.00494139
0.00494985
0.00495976
0.00496867
0.00498057
0.00498313
0.00498726
0.00499407
0.00499764
0.00500054
0.00500222
0.00500833
0.00501946
0.00502248
0.00502568
0.00503744
0.0050351
0.0050269
0.00502146
0.0050154
0.00500945
0.00500591
0.00501082
0.00500111
0.00499373
0.00498827
0.00498115
0.00497424
0.00497555
0.00497116
0.00496539
0.00496508
0.00494817
0.00494374
0.00493464
0.00492559
0.0049188
0.00491246
0.00490829
0.00491328
0.00489319
0.00488458
0.00487882
0.00486904
0.00485998
0.00484995
0.00483878
0.00482821
0.00482177
0.00483216
0.00480892
0.00479737
0.00478438
0.00477655
0.00476758
0.0047572
0.00474551
0.00473806
0.00472844
0.00471994
0.00471285
0.00470573
0.00469771
0.00469575
0.00467993
0.00467042
0.00466056
0.00464957
0.00463941
0.00463152
0.00461459
0.00460374
0.00459182
0.00458172
0.00457993
0.00456083
0.00454412
0.00453428
0.00453042
0.00451809
0.00450395
0.00449811
0.00448872
0.00447768
0.000913367
0.000913261
0.000913259
0.000913334
0.000913462
0.00091363
0.000913831
0.000914053
0.000914313
0.0009146
0.000914905
0.00091519
0.000915475
0.000915821
0.000916253
0.000916784
0.000917415
0.000918141
0.000918963
0.000919918
0.000921072
0.000922451
0.000924098
0.000926054
0.000928361
0.000931053
0.000934202
0.000937883
0.000942185
0.000947222
0.000953124
0.000960048
0.000968185
0.000977761
0.000989018
0.00100219
0.00101752
0.00103528
0.00105573
0.00107909
0.00110556
0.00113527
0.00116835
0.00120484
0.00124473
0.00128799
0.00133454
0.00138422
0.00143693
0.00149247
0.00155068
0.00161142
0.00167447
0.00173966
0.00180693
0.00187613
0.00194705
0.00201963
0.00209381
0.00216937
0.00224612
0.00232393
0.00240278
0.00248253
0.00256304
0.00264406
0.00272545
0.00280694
0.00288836
0.00296938
0.00304985
0.00312961
0.00320907
0.00328847
0.00336647
0.00344177
0.00351481
0.00358606
0.00365543
0.00372432
0.00378968
0.00385394
0.00391849
0.00398041
0.00403759
0.00409394
0.00414783
0.00419422
0.00423664
0.0042787
0.00432085
0.00436417
0.00440789
0.00444623
0.00448321
0.0045199
0.00455355
0.00458542
0.00461499
0.00464179
0.00466913
0.00469835
0.00472423
0.00474815
0.00477097
0.004791
0.00480789
0.00482553
0.00485061
0.0048733
0.00488873
0.00490658
0.00492002
0.00493952
0.00493488
0.00493372
0.00494095
0.00494929
0.00495917
0.00496817
0.00497848
0.00498176
0.00498686
0.00499359
0.00499797
0.00500127
0.00500374
0.00500953
0.00501828
0.00502188
0.00502588
0.00503415
0.00503126
0.0050244
0.00502003
0.00501458
0.00500903
0.00500543
0.00500764
0.00499976
0.00499324
0.00498785
0.00498074
0.00497369
0.00497353
0.00496933
0.00496365
0.00496036
0.00494695
0.00494228
0.00493367
0.00492521
0.00491857
0.0049123
0.00490727
0.00490676
0.00489161
0.00488416
0.00487806
0.00486862
0.00485955
0.00484969
0.00483867
0.00482803
0.00482107
0.00482406
0.00480694
0.00479611
0.00478364
0.00477521
0.0047662
0.00475653
0.00474526
0.00473715
0.00472796
0.00471978
0.00471272
0.00470559
0.00469751
0.00469413
0.0046793
0.00466961
0.00466013
0.00464927
0.00463918
0.00463094
0.00461414
0.00460283
0.00459125
0.00458122
0.00457727
0.00455971
0.00454404
0.00453419
0.00452967
0.00451787
0.00450382
0.00449728
0.00448714
0.00447672
0.000887557
0.000887493
0.000887546
0.000887679
0.000887865
0.00088809
0.000888346
0.000888615
0.000888899
0.000889198
0.000889549
0.000889939
0.000890381
0.000890877
0.000891439
0.000892119
0.000892945
0.000893905
0.000895011
0.000896323
0.000897903
0.000899795
0.000902043
0.000904697
0.000907802
0.000911435
0.000915709
0.000920744
0.000926687
0.000933704
0.000941977
0.000951711
0.000963157
0.000976559
0.00099218
0.00101025
0.00103098
0.00105458
0.00108121
0.00111097
0.00114389
0.00118003
0.00121937
0.00126183
0.00130732
0.00135572
0.00140688
0.00146059
0.00151677
0.00157522
0.00163579
0.00169829
0.00176257
0.0018285
0.00189606
0.00196509
0.00203544
0.00210708
0.00217991
0.00225381
0.00232864
0.00240434
0.00248084
0.00255797
0.00263566
0.00271368
0.00279191
0.00287012
0.00294825
0.00302605
0.00310329
0.00317987
0.00325604
0.00333189
0.00340647
0.00347896
0.00354965
0.00361878
0.0036862
0.0037526
0.00381667
0.00387972
0.0039423
0.00400213
0.00405767
0.00411164
0.00416313
0.00420958
0.00425298
0.00429542
0.00433717
0.00437934
0.00442094
0.00445877
0.00449539
0.00453088
0.00456332
0.00459378
0.00462243
0.00464927
0.00467712
0.00470534
0.00473016
0.00475279
0.00477505
0.00479447
0.00481217
0.0048322
0.00485644
0.00487722
0.00489339
0.00490987
0.00492104
0.00493354
0.0049328
0.00493446
0.0049414
0.0049494
0.00495898
0.00496775
0.00497678
0.0049809
0.00498682
0.00499359
0.00499844
0.00500203
0.00500506
0.00501057
0.00501773
0.00502174
0.00502576
0.00503125
0.00502817
0.00502222
0.00501857
0.0050137
0.00500858
0.00500496
0.00500517
0.00499862
0.0049927
0.00498731
0.00498023
0.0049731
0.00497151
0.00496756
0.00496192
0.0049568
0.00494595
0.00494096
0.00493278
0.00492482
0.00491836
0.0049121
0.00490636
0.00490246
0.00489047
0.00488367
0.00487733
0.00486818
0.00485911
0.00484937
0.00483847
0.00482778
0.00482034
0.00481865
0.00480527
0.00479491
0.00478287
0.00477399
0.00476491
0.00475582
0.00474492
0.00473636
0.0047275
0.00471959
0.0047125
0.00470533
0.00469718
0.00469254
0.00467865
0.00466891
0.00465967
0.00464889
0.00463883
0.00463011
0.00461363
0.00460196
0.00459067
0.00458056
0.00457493
0.00455862
0.00454385
0.00453402
0.00452889
0.0045176
0.0045036
0.00449633
0.00448567
0.00447584
0.000858475
0.000858564
0.000858743
0.000858977
0.000859246
0.000859545
0.000859867
0.000860205
0.000860541
0.0008609
0.000861326
0.00086183
0.000862413
0.00086307
0.000863831
0.00086475
0.000865862
0.000867172
0.000868732
0.000870579
0.000872769
0.00087537
0.000878454
0.000882108
0.000886423
0.000891532
0.000897589
0.000904769
0.000913298
0.000923396
0.00093528
0.000949183
0.000965347
0.000983997
0.00100532
0.00102947
0.00105655
0.00108666
0.00111981
0.00115598
0.00119509
0.00123704
0.00128182
0.00132922
0.00137911
0.00143142
0.00148589
0.00154237
0.00160082
0.00166108
0.00172294
0.00178624
0.00185089
0.00191685
0.00198404
0.00205236
0.00212171
0.00219211
0.0022634
0.00233551
0.00240833
0.0024819
0.00255604
0.00263065
0.00270562
0.00278084
0.00285617
0.00293143
0.00300655
0.00308136
0.00315557
0.00322915
0.00330227
0.00337492
0.00344639
0.00351624
0.00358458
0.00365159
0.00371706
0.00378133
0.00384389
0.00390536
0.00396591
0.00402373
0.00407771
0.00412973
0.00417946
0.00422566
0.0042694
0.00431174
0.00435289
0.00439383
0.00443374
0.00447088
0.00450689
0.00454135
0.00457285
0.00460233
0.00463036
0.00465716
0.00468483
0.00471197
0.00473585
0.00475747
0.00477889
0.00479794
0.00481635
0.0048377
0.00486107
0.00488043
0.0048967
0.00491193
0.00492169
0.00493039
0.00493218
0.00493562
0.00494239
0.00495
0.00495916
0.00496755
0.00497563
0.00498054
0.00498705
0.00499387
0.00499898
0.00500278
0.0050062
0.00501145
0.00501755
0.00502172
0.00502536
0.00502877
0.00502566
0.00502034
0.00501716
0.0050128
0.00500811
0.00500447
0.00500326
0.00499763
0.0049921
0.00498666
0.00497963
0.00497245
0.00496967
0.00496589
0.00496026
0.00495413
0.00494508
0.00493977
0.00493195
0.00492443
0.00491814
0.00491187
0.00490556
0.00489968
0.00488963
0.00488313
0.00487662
0.0048677
0.00485865
0.00484898
0.00483818
0.00482748
0.00481959
0.00481504
0.00480381
0.00479376
0.00478207
0.00477287
0.00476372
0.00475507
0.00474451
0.00473565
0.00472703
0.00471934
0.00471218
0.00470495
0.00469674
0.00469105
0.00467798
0.00466826
0.00465917
0.00464844
0.00463838
0.00462915
0.00461305
0.00460112
0.00459005
0.00457978
0.00457286
0.00455757
0.00454353
0.00453375
0.00452809
0.00451726
0.00450328
0.00449532
0.00448431
0.00447502
0.000826067
0.000826192
0.000826412
0.000826689
0.000827002
0.000827349
0.000827727
0.000828133
0.000828569
0.000829056
0.000829595
0.000830225
0.00083097
0.000831879
0.000832974
0.000834266
0.000835795
0.000837633
0.000839826
0.000842439
0.000845537
0.00084922
0.000853621
0.000858902
0.000865207
0.000872727
0.000881679
0.00089229
0.000904796
0.000919431
0.000936418
0.000955945
0.000978147
0.00100314
0.00103098
0.00106171
0.00109532
0.00113178
0.00117096
0.00121276
0.00125706
0.00130373
0.00135268
0.00140377
0.00145681
0.00151169
0.00156826
0.0016264
0.00168606
0.0017471