/*--------------------------------*- C++ -*----------------------------------*\
| =========                 |                                                 |
| \\      /  F ield         | OpenFOAM: The Open Source CFD Toolbox           |
|  \\    /   O peration     | Version:  1.7.0                                 |
|   \\  /    A nd           | Web:      www.OpenFOAM.com                      |
|    \\/     M anipulation  |                                                 |
\*---------------------------------------------------------------------------*/
FoamFile
{
    version     2.0;
    format      ascii;
    class       volScalarField;
    location    "0.252";
    object      N2;
}
// * * * * * * * * * * * * * * * * * * * * * * * * * * * * * * * * * * * * * //

dimensions      [0 0 0 0 0 0 0];

internalField   nonuniform List<scalar> 
14800
(
0.735
0.735
0.735
0.735
0.735
0.735
0.735
0.735
0.734999
0.734999
0.734999
0.734999
0.734999
0.734999
0.734999
0.734998
0.734998
0.734998
0.734998
0.734998
0.734998
0.734998
0.734998
0.734998
0.734998
0.734998
0.734998
0.734998
0.734998
0.734998
0.734998
0.734999
0.734999
0.735
0.735001
0.735002
0.735003
0.735005
0.735007
0.735011
0.735015
0.735019
0.735026
0.735033
0.735043
0.735055
0.73507
0.735088
0.735111
0.735138
0.735172
0.735212
0.73526
0.735318
0.735388
0.735469
0.735563
0.735676
0.735807
0.735957
0.736127
0.736318
0.736531
0.736765
0.737019
0.737293
0.737587
0.737897
0.738224
0.738564
0.738915
0.739277
0.739647
0.740024
0.740406
0.740794
0.741186
0.741578
0.741973
0.742369
0.742764
0.743159
0.743552
0.743941
0.744327
0.744709
0.745087
0.74546
0.745825
0.746189
0.746547
0.746897
0.747244
0.747584
0.74792
0.74825
0.748575
0.748891
0.749204
0.749511
0.749811
0.750108
0.750396
0.750679
0.750958
0.751229
0.751497
0.751759
0.752015
0.752265
0.752511
0.752751
0.752989
0.75322
0.753448
0.753671
0.75389
0.754104
0.754314
0.754518
0.754719
0.754915
0.755106
0.755292
0.755474
0.755655
0.755833
0.756004
0.756175
0.756339
0.756503
0.756661
0.756821
0.756977
0.757129
0.757279
0.757427
0.757568
0.757709
0.757846
0.757981
0.758113
0.758242
0.758369
0.75849
0.758613
0.758731
0.758844
0.758961
0.759076
0.759184
0.759298
0.759403
0.75951
0.759614
0.759715
0.759815
0.759912
0.760007
0.760102
0.760196
0.760284
0.760377
0.760463
0.760552
0.760638
0.760721
0.760803
0.760884
0.760967
0.761047
0.761124
0.761201
0.761278
0.761353
0.761426
0.761498
0.761569
0.761643
0.761711
0.761782
0.761851
0.761912
0.761979
0.762044
0.762105
0.762169
0.762232
0.762288
0.762346
0.762398
0.762455
0.762509
0.762557
0.762612
0.762661
0.762708
0.762756
0.762804
0.762853
0.735
0.735
0.735
0.735
0.735
0.735
0.735
0.735
0.735
0.734999
0.734999
0.734999
0.734999
0.734999
0.734999
0.734998
0.734999
0.734998
0.734998
0.734998
0.734998
0.734998
0.734998
0.734998
0.734998
0.734998
0.734998
0.734998
0.734998
0.734998
0.734999
0.734999
0.735
0.735
0.735001
0.735002
0.735004
0.735006
0.735009
0.735013
0.735017
0.735022
0.735029
0.735038
0.735049
0.735062
0.735078
0.735098
0.735122
0.735152
0.735187
0.73523
0.735282
0.735343
0.735415
0.735501
0.7356
0.735716
0.73585
0.736003
0.736175
0.736369
0.736583
0.736818
0.737073
0.737349
0.737642
0.737952
0.738277
0.738616
0.738966
0.739326
0.739694
0.74007
0.74045
0.740836
0.741226
0.741617
0.74201
0.742404
0.742798
0.743191
0.743582
0.74397
0.744354
0.744735
0.745112
0.745483
0.745849
0.746211
0.746567
0.746917
0.747263
0.747603
0.747938
0.748267
0.74859
0.748907
0.749219
0.749525
0.749825
0.75012
0.750409
0.750692
0.75097
0.751241
0.751508
0.751769
0.752025
0.752276
0.752522
0.752762
0.752999
0.75323
0.753457
0.75368
0.753899
0.754113
0.754323
0.754527
0.754728
0.754924
0.755115
0.755301
0.755484
0.755664
0.755841
0.756013
0.756183
0.756349
0.756512
0.756671
0.75683
0.756986
0.757138
0.757287
0.757434
0.757577
0.757717
0.757855
0.75799
0.758121
0.75825
0.758376
0.758499
0.758622
0.75874
0.758855
0.758971
0.759084
0.759195
0.759306
0.759412
0.759519
0.759623
0.759725
0.759824
0.759921
0.760018
0.760111
0.760206
0.760295
0.760386
0.760474
0.760562
0.760648
0.760731
0.760814
0.760895
0.760977
0.761057
0.761136
0.761213
0.761289
0.761363
0.761436
0.761509
0.761582
0.761655
0.761724
0.761794
0.761861
0.761926
0.761992
0.762057
0.762118
0.76218
0.762243
0.7623
0.762357
0.762411
0.762468
0.762521
0.762572
0.762625
0.762674
0.762721
0.762771
0.762819
0.762866
0.735
0.735
0.735
0.735
0.735
0.735
0.735
0.735
0.735
0.735
0.734999
0.734999
0.734999
0.734999
0.734999
0.734999
0.734999
0.734999
0.734999
0.734999
0.734999
0.734998
0.734998
0.734998
0.734998
0.734998
0.734998
0.734999
0.734999
0.734999
0.734999
0.735
0.735001
0.735002
0.735003
0.735004
0.735007
0.735009
0.735013
0.735017
0.735023
0.73503
0.735038
0.735049
0.735062
0.735077
0.735097
0.73512
0.735149
0.735183
0.735224
0.735272
0.73533
0.735398
0.735478
0.735571
0.735679
0.735803
0.735944
0.736103
0.736282
0.73648
0.736699
0.736937
0.737193
0.737469
0.737761
0.73807
0.738393
0.738729
0.739076
0.739432
0.739796
0.740168
0.740545
0.740927
0.741312
0.7417
0.742089
0.74248
0.742869
0.743259
0.743646
0.744031
0.744413
0.744791
0.745164
0.745533
0.745897
0.746256
0.746609
0.746958
0.747302
0.74764
0.747973
0.7483
0.748622
0.748937
0.749247
0.749552
0.749851
0.750144
0.750432
0.750715
0.750991
0.751262
0.751528
0.751788
0.752043
0.752294
0.752539
0.752779
0.753014
0.753245
0.753472
0.753694
0.753913
0.754127
0.754336
0.75454
0.75474
0.754935
0.755126
0.755312
0.755495
0.755675
0.755851
0.756024
0.756193
0.756359
0.756522
0.756682
0.756839
0.756995
0.757147
0.757296
0.757442
0.757585
0.757725
0.757863
0.757997
0.758128
0.758258
0.758384
0.758507
0.758629
0.758748
0.758863
0.758978
0.759091
0.759202
0.759312
0.75942
0.759526
0.75963
0.759732
0.759831
0.759928
0.760025
0.760119
0.760213
0.760303
0.760393
0.760482
0.760569
0.760655
0.760738
0.760821
0.760902
0.760984
0.761064
0.761143
0.76122
0.761296
0.76137
0.761444
0.761517
0.76159
0.761662
0.761731
0.761801
0.761869
0.761934
0.762
0.762064
0.762126
0.762188
0.762251
0.762308
0.762365
0.76242
0.762475
0.762529
0.76258
0.762633
0.762682
0.76273
0.76278
0.762828
0.762875
0.735
0.735
0.735
0.735
0.735
0.735
0.735
0.735
0.735
0.735
0.735
0.734999
0.734999
0.734999
0.734999
0.734999
0.734999
0.734999
0.734999
0.734999
0.734999
0.734999
0.734999
0.734999
0.734999
0.734999
0.734999
0.734999
0.734999
0.735
0.735
0.735001
0.735002
0.735004
0.735006
0.735008
0.735011
0.735015
0.73502
0.735026
0.735033
0.735042
0.735053
0.735067
0.735084
0.735104
0.735128
0.735158
0.735193
0.735234
0.735284
0.735341
0.735409
0.735488
0.735579
0.735684
0.735803
0.735938
0.736089
0.736258
0.736445
0.73665
0.736873
0.737115
0.737374
0.737649
0.737941
0.738247
0.738566
0.738898
0.73924
0.739591
0.73995
0.740315
0.740686
0.741062
0.741442
0.741824
0.742207
0.742592
0.742977
0.74336
0.743743
0.744123
0.7445
0.744874
0.745243
0.745608
0.745967
0.746323
0.746673
0.747019
0.747359
0.747695
0.748025
0.748349
0.748668
0.748981
0.749289
0.749591
0.749889
0.75018
0.750467
0.750747
0.751022
0.751292
0.751556
0.751815
0.752069
0.752319
0.752563
0.752802
0.753036
0.753266
0.753492
0.753714
0.753931
0.754144
0.754353
0.754557
0.754756
0.75495
0.755141
0.755327
0.755509
0.755688
0.755864
0.756036
0.756205
0.756371
0.756533
0.756693
0.75685
0.757005
0.757157
0.757306
0.757452
0.757594
0.757734
0.757872
0.758006
0.758137
0.758266
0.758392
0.758516
0.758637
0.758756
0.758872
0.758986
0.759099
0.75921
0.75932
0.759427
0.759533
0.759636
0.759739
0.759838
0.759935
0.760031
0.760125
0.76022
0.76031
0.760399
0.760488
0.760575
0.760661
0.760744
0.760827
0.760909
0.76099
0.76107
0.761149
0.761226
0.761302
0.761376
0.76145
0.761523
0.761596
0.761668
0.761737
0.761807
0.761875
0.761941
0.762007
0.762071
0.762132
0.762195
0.762257
0.762314
0.762371
0.762426
0.762482
0.762535
0.762587
0.762639
0.762689
0.762737
0.762787
0.762835
0.762882
0.735
0.735
0.735
0.735
0.735
0.735
0.735
0.735
0.735
0.735
0.735
0.735
0.734999
0.734999
0.734999
0.734999
0.734999
0.734999
0.734999
0.734999
0.734999
0.734999
0.734999
0.734999
0.734999
0.734999
0.735
0.735
0.735
0.735001
0.735002
0.735004
0.735005
0.735007
0.73501
0.735014
0.735018
0.735024
0.735031
0.735039
0.73505
0.735062
0.735078
0.735097
0.735119
0.735146
0.735178
0.735216
0.73526
0.735312
0.735373
0.735444
0.735525
0.735618
0.735723
0.735842
0.735975
0.736124
0.736287
0.736467
0.736664
0.736877
0.737106
0.737351
0.737612
0.737887
0.738177
0.73848
0.738794
0.73912
0.739455
0.739799
0.740151
0.740509
0.740873
0.741241
0.741613
0.741987
0.742363
0.74274
0.743118
0.743495
0.74387
0.744244
0.744615
0.744983
0.745346
0.745706
0.746061
0.746411
0.746757
0.747098
0.747435
0.747766
0.748092
0.748413
0.748729
0.749039
0.749344
0.749644
0.749938
0.750228
0.750512
0.75079
0.751063
0.751331
0.751593
0.751851
0.752103
0.752351
0.752593
0.752831
0.753064
0.753293
0.753518
0.753738
0.753955
0.754167
0.754374
0.754577
0.754776
0.754969
0.755159
0.755345
0.755527
0.755705
0.75588
0.756051
0.75622
0.756385
0.756547
0.756707
0.756864
0.757018
0.757169
0.757318
0.757463
0.757605
0.757745
0.757882
0.758016
0.758147
0.758275
0.758401
0.758525
0.758646
0.758764
0.75888
0.758995
0.759107
0.759218
0.759327
0.759434
0.75954
0.759644
0.759746
0.759845
0.759942
0.760038
0.760132
0.760226
0.760316
0.760406
0.760495
0.760582
0.760667
0.76075
0.760833
0.760915
0.760995
0.761076
0.761155
0.761232
0.761307
0.761382
0.761456
0.761529
0.761602
0.761673
0.761743
0.761813
0.76188
0.761946
0.762012
0.762076
0.762138
0.762201
0.762263
0.76232
0.762377
0.762432
0.762487
0.762541
0.762593
0.762644
0.762695
0.762743
0.762793
0.762841
0.762888
0.735
0.735
0.735
0.735
0.735
0.735
0.735
0.735
0.735
0.735
0.735
0.735
0.735
0.734999
0.734999
0.734999
0.734999
0.734999
0.734999
0.734999
0.734999
0.734999
0.734999
0.734999
0.735
0.735
0.735001
0.735001
0.735002
0.735004
0.735005
0.735007
0.73501
0.735014
0.735018
0.735024
0.73503
0.735039
0.735049
0.735061
0.735076
0.735094
0.735116
0.735142
0.735172
0.735208
0.735251
0.7353
0.735358
0.735424
0.7355
0.735587
0.735684
0.735794
0.735916
0.736052
0.736201
0.736364
0.736541
0.736733
0.736939
0.73716
0.737394
0.737643
0.737904
0.738179
0.738466
0.738764
0.739073
0.739392
0.739719
0.740055
0.740398
0.740747
0.741101
0.74146
0.741822
0.742187
0.742554
0.742922
0.743291
0.74366
0.744027
0.744393
0.744756
0.745117
0.745474
0.745827
0.746176
0.74652
0.74686
0.747196
0.747528
0.747855
0.748176
0.748493
0.748804
0.749111
0.749412
0.749708
0.75
0.750286
0.750567
0.750843
0.751114
0.751379
0.751639
0.751894
0.752145
0.75239
0.752631
0.752867
0.753099
0.753326
0.753549
0.753769
0.753983
0.754194
0.754401
0.754603
0.7548
0.754993
0.755181
0.755366
0.755547
0.755725
0.755899
0.75607
0.756238
0.756402
0.756564
0.756723
0.756879
0.757033
0.757184
0.757332
0.757476
0.757618
0.757757
0.757894
0.758028
0.758158
0.758286
0.758412
0.758535
0.758656
0.758774
0.75889
0.759004
0.759116
0.759227
0.759336
0.759443
0.759549
0.759652
0.759753
0.759852
0.759949
0.760045
0.76014
0.760233
0.760323
0.760413
0.760501
0.760588
0.760673
0.760756
0.76084
0.760921
0.761002
0.761082
0.76116
0.761237
0.761313
0.761387
0.761461
0.761535
0.761608
0.761679
0.761749
0.761818
0.761885
0.761952
0.762018
0.762082
0.762144
0.762206
0.762268
0.762325
0.762382
0.762437
0.762493
0.762546
0.762598
0.76265
0.7627
0.762748
0.762798
0.762847
0.762893
0.735
0.735
0.735
0.735
0.735
0.735
0.735
0.735
0.735
0.735
0.735
0.735
0.735
0.735
0.734999
0.734999
0.734999
0.734999
0.734999
0.734999
0.735
0.735
0.735
0.735
0.735001
0.735002
0.735002
0.735004
0.735005
0.735008
0.73501
0.735014
0.735018
0.735024
0.735031
0.735039
0.73505
0.735062
0.735077
0.735095
0.735117
0.735143
0.735173
0.735209
0.735251
0.7353
0.735357
0.735422
0.735495
0.735579
0.735673
0.735778
0.735895
0.736023
0.736164
0.736317
0.736483
0.73666
0.736851
0.737054
0.737269
0.737496
0.737735
0.737986
0.738248
0.738521
0.738804
0.739097
0.739399
0.739709
0.740028
0.740354
0.740687
0.741025
0.741369
0.741717
0.742068
0.742422
0.742779
0.743137
0.743496
0.743854
0.744212
0.744569
0.744923
0.745275
0.745624
0.74597
0.746311
0.746649
0.746983
0.747313
0.747638
0.747959
0.748275
0.748587
0.748894
0.749195
0.749493
0.749785
0.750073
0.750355
0.750633
0.750906
0.751173
0.751436
0.751693
0.751946
0.752194
0.752437
0.752676
0.75291
0.75314
0.753365
0.753587
0.753804
0.754017
0.754227
0.754432
0.754632
0.754828
0.75502
0.755208
0.755391
0.755571
0.755748
0.755921
0.756091
0.756258
0.756422
0.756583
0.756741
0.756897
0.75705
0.7572
0.757347
0.757491
0.757633
0.757772
0.757908
0.758041
0.758171
0.758299
0.758424
0.758547
0.758667
0.758785
0.758901
0.759014
0.759126
0.759237
0.759345
0.759452
0.759558
0.759661
0.759762
0.759861
0.759957
0.760053
0.760148
0.760241
0.760331
0.76042
0.760508
0.760595
0.76068
0.760763
0.760846
0.760928
0.761008
0.761088
0.761166
0.761243
0.761319
0.761393
0.761467
0.761541
0.761613
0.761685
0.761754
0.761824
0.761891
0.761957
0.762023
0.762087
0.762149
0.762212
0.762273
0.762331
0.762387
0.762443
0.762498
0.762551
0.762603
0.762655
0.762705
0.762754
0.762804
0.762852
0.762898
0.735
0.735
0.735
0.735
0.735
0.735
0.735
0.735
0.735
0.735
0.735
0.735
0.735
0.735
0.735
0.735
0.735
0.735
0.735
0.735
0.735
0.735
0.735001
0.735002
0.735003
0.735004
0.735006
0.735008
0.735011
0.735015
0.735019
0.735025
0.735032
0.735041
0.735052
0.735065
0.73508
0.735099
0.735122
0.735148
0.73518
0.735217
0.735259
0.735309
0.735366
0.735432
0.735506
0.735589
0.735683
0.735787
0.735902
0.736027
0.736164
0.736312
0.736471
0.736641
0.736822
0.737014
0.737216
0.737429
0.737652
0.737884
0.738126
0.738378
0.738639
0.738908
0.739186
0.739473
0.739767
0.740069
0.740378
0.740693
0.741014
0.741341
0.741673
0.742008
0.742348
0.74269
0.743035
0.743381
0.743729
0.744076
0.744424
0.74477
0.745115
0.745457
0.745797
0.746134
0.746467
0.746797
0.747124
0.747446
0.747765
0.74808
0.74839
0.748696
0.748997
0.749293
0.749586
0.749873
0.750157
0.750435
0.750709
0.750978
0.751242
0.751501
0.751756
0.752005
0.752251
0.752491
0.752727
0.752959
0.753186
0.75341
0.75363
0.753845
0.754057
0.754264
0.754467
0.754666
0.754861
0.755051
0.755238
0.75542
0.755599
0.755774
0.755947
0.756116
0.756282
0.756445
0.756605
0.756762
0.756917
0.757069
0.757219
0.757365
0.757509
0.75765
0.757788
0.757923
0.758056
0.758186
0.758313
0.758438
0.75856
0.75868
0.758798
0.758913
0.759026
0.759138
0.759248
0.759356
0.759462
0.759567
0.75967
0.759771
0.75987
0.759966
0.760062
0.760156
0.760249
0.760339
0.760428
0.760516
0.760602
0.760687
0.76077
0.760853
0.760935
0.761015
0.761094
0.761173
0.761249
0.761325
0.761399
0.761473
0.761547
0.761619
0.76169
0.76176
0.761829
0.761897
0.761963
0.762029
0.762093
0.762155
0.762217
0.762278
0.762336
0.762392
0.762448
0.762503
0.762556
0.762608
0.76266
0.76271
0.762759
0.762809
0.762857
0.762903
0.735
0.735
0.735
0.735
0.735
0.735
0.735
0.735
0.735
0.735
0.735
0.735
0.735
0.735
0.735
0.735
0.735
0.735
0.735
0.735001
0.735001
0.735002
0.735003
0.735004
0.735006
0.735008
0.735012
0.735015
0.73502
0.735027
0.735034
0.735044
0.735055
0.735069
0.735086
0.735106
0.73513
0.735158
0.735191
0.73523
0.735274
0.735326
0.735386
0.735453
0.735529
0.735615
0.73571
0.735815
0.735931
0.736056
0.736193
0.736339
0.736496
0.736662
0.736838
0.737024
0.737219
0.737422
0.737634
0.737855
0.738083
0.738319
0.738563
0.738814
0.739072
0.739337
0.739609
0.739888
0.740174
0.740466
0.740764
0.741067
0.741376
0.741691
0.742009
0.742332
0.742659
0.742988
0.74332
0.743654
0.743989
0.744324
0.74466
0.744995
0.745329
0.745661
0.74599
0.746318
0.746642
0.746964
0.747282
0.747597
0.747908
0.748215
0.748519
0.748818
0.749113
0.749404
0.749691
0.749973
0.750252
0.750526
0.750795
0.75106
0.75132
0.751576
0.751826
0.752073
0.752315
0.752552
0.752786
0.753015
0.75324
0.753461
0.753678
0.753891
0.754101
0.754306
0.754508
0.754705
0.754898
0.755087
0.755272
0.755453
0.75563
0.755804
0.755975
0.756143
0.756308
0.75647
0.756629
0.756786
0.75694
0.757091
0.75724
0.757385
0.757528
0.757668
0.757806
0.757941
0.758072
0.758202
0.758329
0.758453
0.758575
0.758694
0.758811
0.758926
0.759039
0.75915
0.75926
0.759368
0.759474
0.759578
0.759681
0.759781
0.75988
0.759976
0.760072
0.760165
0.760258
0.760348
0.760437
0.760524
0.760611
0.760695
0.760778
0.760861
0.760942
0.761022
0.761101
0.761179
0.761256
0.761331
0.761406
0.76148
0.761553
0.761625
0.761696
0.761766
0.761835
0.761902
0.761969
0.762034
0.762098
0.762161
0.762223
0.762283
0.762341
0.762398
0.762453
0.762508
0.762561
0.762613
0.762665
0.762715
0.762764
0.762814
0.762862
0.762908
0.735
0.735
0.735
0.735
0.735
0.735
0.735
0.735
0.735
0.735
0.735
0.735
0.735
0.735
0.735
0.735
0.735
0.735001
0.735001
0.735002
0.735003
0.735005
0.735007
0.735009
0.735012
0.735017
0.735022
0.735029
0.735037
0.735047
0.73506
0.735075
0.735093
0.735115
0.735141
0.735171
0.735207
0.735249
0.735297
0.735352
0.735414
0.735486
0.735566
0.735655
0.735754
0.735862
0.735981
0.736109
0.736247
0.736395
0.736552
0.736718
0.736893
0.737076
0.737267
0.737466
0.737671
0.737884
0.738103
0.738329
0.73856
0.738798
0.739041
0.739289
0.739543
0.739803
0.740068
0.740339
0.740615
0.740896
0.741182
0.741474
0.74177
0.742071
0.742376
0.742685
0.742998
0.743314
0.743632
0.743952
0.744274
0.744596
0.744919
0.745242
0.745564
0.745885
0.746204
0.746521
0.746835
0.747147
0.747457
0.747763
0.748066
0.748365
0.748661
0.748954
0.749242
0.749527
0.749808
0.750084
0.750357
0.750626
0.750891
0.751151
0.751407
0.751658
0.751905
0.752148
0.752386
0.752621
0.752851
0.753077
0.753299
0.753517
0.753732
0.753943
0.75415
0.754354
0.754553
0.754748
0.754939
0.755126
0.755309
0.755489
0.755665
0.755837
0.756007
0.756174
0.756337
0.756498
0.756656
0.756812
0.756965
0.757115
0.757263
0.757408
0.75755
0.757689
0.757826
0.75796
0.758091
0.75822
0.758346
0.758469
0.758591
0.758709
0.758826
0.758941
0.759053
0.759164
0.759273
0.75938
0.759486
0.75959
0.759692
0.759792
0.75989
0.759987
0.760082
0.760175
0.760268
0.760357
0.760446
0.760533
0.760619
0.760703
0.760786
0.760869
0.76095
0.761029
0.761108
0.761186
0.761263
0.761338
0.761413
0.761487
0.76156
0.761632
0.761703
0.761773
0.761841
0.761908
0.761975
0.76204
0.762104
0.762167
0.762229
0.762289
0.762346
0.762403
0.762458
0.762513
0.762566
0.762618
0.76267
0.76272
0.762769
0.762819
0.762867
0.762913
0.735
0.735
0.735
0.735
0.735
0.735
0.735
0.735
0.735
0.735
0.735
0.735
0.735
0.735
0.735
0.735001
0.735001
0.735002
0.735003
0.735005
0.735007
0.73501
0.735013
0.735018
0.735024
0.735032
0.735041
0.735052
0.735066
0.735083
0.735103
0.735128
0.735156
0.73519
0.735229
0.735274
0.735327
0.735386
0.735454
0.73553
0.735616
0.735711
0.735815
0.735929
0.736052
0.736185
0.736327
0.736479
0.736638
0.736806
0.736982
0.737165
0.737356
0.737552
0.737755
0.737963
0.738177
0.738396
0.738619
0.738847
0.739079
0.739316
0.739556
0.739801
0.740049
0.740302
0.740559
0.74082
0.741085
0.741355
0.741629
0.741908
0.742191
0.742478
0.742769
0.743064
0.743362
0.743664
0.743967
0.744273
0.744581
0.74489
0.7452
0.74551
0.745819
0.746128
0.746435
0.746741
0.747046
0.747348
0.747647
0.747944
0.748238
0.74853
0.748817
0.749102
0.749383
0.749661
0.749935
0.750206
0.750473
0.750736
0.750996
0.751251
0.751502
0.751749
0.751992
0.75223
0.752465
0.752696
0.752922
0.753145
0.753364
0.75358
0.753792
0.754
0.754204
0.754405
0.754602
0.754795
0.754984
0.75517
0.755351
0.755529
0.755703
0.755874
0.756042
0.756207
0.75637
0.756529
0.756686
0.75684
0.756992
0.757141
0.757288
0.757432
0.757573
0.757712
0.757847
0.757981
0.758111
0.758239
0.758365
0.758488
0.758608
0.758726
0.758842
0.758956
0.759068
0.759179
0.759287
0.759394
0.759499
0.759603
0.759705
0.759804
0.759902
0.759998
0.760093
0.760186
0.760278
0.760368
0.760456
0.760543
0.760628
0.760712
0.760795
0.760877
0.760958
0.761037
0.761116
0.761194
0.76127
0.761346
0.76142
0.761494
0.761567
0.761639
0.76171
0.761779
0.761848
0.761915
0.761981
0.762046
0.76211
0.762173
0.762234
0.762294
0.762352
0.762408
0.762464
0.762518
0.762571
0.762624
0.762675
0.762725
0.762774
0.762824
0.762872
0.762917
0.735
0.735
0.735
0.735
0.735
0.735
0.735
0.735
0.735
0.735
0.735
0.735
0.735
0.735001
0.735001
0.735002
0.735003
0.735005
0.735008
0.735011
0.735015
0.73502
0.735027
0.735035
0.735046
0.735059
0.735074
0.735094
0.735117
0.735144
0.735176
0.735214
0.735258
0.735308
0.735366
0.735432
0.735507
0.73559
0.735682
0.735784
0.735896
0.736017
0.736147
0.736287
0.736435
0.736592
0.736756
0.736928
0.737107
0.737292
0.737484
0.73768
0.737882
0.738089
0.738299
0.738514
0.738732
0.738954
0.739179
0.739406
0.739636
0.73987
0.740105
0.740344
0.740585
0.74083
0.741077
0.741328
0.741583
0.74184
0.742102
0.742367
0.742636
0.742909
0.743186
0.743466
0.743749
0.744036
0.744325
0.744616
0.744909
0.745204
0.7455
0.745796
0.746093
0.746389
0.746684
0.746979
0.747272
0.747563
0.747852
0.74814
0.748424
0.748707
0.748986
0.749263
0.749536
0.749807
0.750074
0.750338
0.750599
0.750856
0.75111
0.75136
0.751606
0.751848
0.752086
0.75232
0.75255
0.752777
0.753
0.753219
0.753435
0.753647
0.753856
0.754062
0.754264
0.754462
0.754656
0.754847
0.755034
0.755217
0.755396
0.755572
0.755744
0.755914
0.75608
0.756244
0.756405
0.756563
0.756719
0.756872
0.757022
0.75717
0.757316
0.757459
0.757599
0.757736
0.757871
0.758003
0.758133
0.75826
0.758385
0.758507
0.758627
0.758745
0.75886
0.758973
0.759085
0.759195
0.759303
0.759409
0.759514
0.759617
0.759718
0.759817
0.759915
0.760011
0.760105
0.760198
0.760289
0.760378
0.760466
0.760553
0.760638
0.760722
0.760805
0.760886
0.760967
0.761046
0.761125
0.761202
0.761278
0.761353
0.761428
0.761501
0.761574
0.761646
0.761717
0.761786
0.761854
0.761921
0.761987
0.762052
0.762116
0.762179
0.76224
0.7623
0.762358
0.762414
0.762469
0.762524
0.762577
0.762629
0.76268
0.76273
0.76278
0.762829
0.762877
0.762922
0.735
0.735
0.735
0.735
0.735
0.735
0.735
0.735
0.735
0.735
0.735
0.735001
0.735001
0.735002
0.735004
0.735006
0.735008
0.735012
0.735016
0.735022
0.73503
0.73504
0.735052
0.735067
0.735085
0.735107
0.735134
0.735165
0.735202
0.735245
0.735295
0.735353
0.735418
0.735492
0.735575
0.735667
0.735769
0.73588
0.736001
0.736131
0.73627
0.736418
0.736574
0.736738
0.736909
0.737087
0.73727
0.737459
0.737653
0.737851
0.738054
0.73826
0.738469
0.738682
0.738896
0.739114
0.739333
0.739554
0.739777
0.740001
0.740227
0.740455
0.740684
0.740915
0.741148
0.741383
0.741621
0.74186
0.742103
0.742348
0.742596
0.742848
0.743103
0.743361
0.743623
0.743888
0.744156
0.744427
0.744701
0.744977
0.745256
0.745536
0.745817
0.7461
0.746383
0.746666
0.746949
0.747231
0.747513
0.747793
0.748071
0.748348
0.748623
0.748896
0.749167
0.749435
0.7497
0.749963
0.750223
0.75048
0.750734
0.750985
0.751232
0.751477
0.751717
0.751954
0.752187
0.752417
0.752643
0.752865
0.753084
0.7533
0.753512
0.753721
0.753926
0.754129
0.754328
0.754523
0.754715
0.754903
0.755087
0.755268
0.755445
0.755619
0.755789
0.755957
0.756122
0.756284
0.756443
0.7566
0.756754
0.756905
0.757055
0.757201
0.757346
0.757487
0.757626
0.757763
0.757896
0.758028
0.758157
0.758283
0.758407
0.758528
0.758647
0.758764
0.758879
0.758992
0.759103
0.759212
0.759319
0.759425
0.759529
0.759632
0.759732
0.759831
0.759928
0.760024
0.760118
0.76021
0.760301
0.76039
0.760477
0.760564
0.760649
0.760732
0.760815
0.760896
0.760976
0.761055
0.761133
0.761211
0.761287
0.761362
0.761436
0.761509
0.761582
0.761653
0.761724
0.761793
0.761862
0.761928
0.761994
0.762059
0.762123
0.762185
0.762247
0.762306
0.762364
0.76242
0.762475
0.762529
0.762582
0.762634
0.762686
0.762736
0.762785
0.762834
0.762882
0.762927
0.735
0.735
0.735
0.735
0.735
0.735
0.735
0.735
0.735
0.735001
0.735001
0.735002
0.735004
0.735006
0.735009
0.735013
0.735018
0.735025
0.735034
0.735045
0.73506
0.735077
0.735099
0.735125
0.735156
0.735193
0.735236
0.735287
0.735345
0.735411
0.735486
0.73557
0.735664
0.735768
0.735881
0.736003
0.736136
0.736277
0.736427
0.736585
0.736751
0.736924
0.737103
0.737287
0.737476
0.73767
0.737868
0.738069
0.738273
0.73848
0.738689
0.738899
0.739112
0.739326
0.739541
0.739757
0.739974
0.740192
0.74041
0.740629
0.740848
0.741069
0.74129
0.741512
0.741735
0.741959
0.742185
0.742413
0.742643
0.742875
0.743109
0.743347
0.743587
0.743831
0.744077
0.744327
0.74458
0.744836
0.745094
0.745355
0.745619
0.745884
0.746151
0.746419
0.746688
0.746958
0.747228
0.747498
0.747767
0.748036
0.748303
0.74857
0.748834
0.749097
0.749359
0.749618
0.749875
0.750129
0.750381
0.750631
0.750878
0.751122
0.751363
0.751601
0.751836
0.752068
0.752296
0.75252
0.752741
0.752959
0.753174
0.753385
0.753594
0.753799
0.754001
0.7542
0.754396
0.754588
0.754777
0.754963
0.755145
0.755323
0.755498
0.755669
0.755838
0.756003
0.756166
0.756326
0.756484
0.756639
0.756791
0.756942
0.757089
0.757235
0.757378
0.757518
0.757656
0.757791
0.757924
0.758054
0.758182
0.758308
0.758431
0.758551
0.758669
0.758785
0.758899
0.759011
0.759122
0.75923
0.759337
0.759442
0.759546
0.759648
0.759748
0.759846
0.759943
0.760038
0.760131
0.760223
0.760314
0.760402
0.760489
0.760575
0.76066
0.760743
0.760825
0.760906
0.760986
0.761065
0.761143
0.76122
0.761296
0.76137
0.761444
0.761518
0.76159
0.761661
0.761732
0.761801
0.761869
0.761935
0.762001
0.762066
0.76213
0.762192
0.762253
0.762312
0.76237
0.762426
0.762481
0.762535
0.762588
0.76264
0.762691
0.762741
0.76279
0.762839
0.762887
0.762932
0.735
0.735
0.735
0.735
0.735
0.735
0.735
0.735001
0.735001
0.735002
0.735004
0.735006
0.735009
0.735014
0.73502
0.735028
0.735039
0.735052
0.73507
0.735091
0.735117
0.735148
0.735186
0.73523
0.735282
0.735342
0.735411
0.735489
0.735576
0.735673
0.735781
0.735898
0.736026
0.736163
0.736309
0.736464
0.736626
0.736797
0.736973
0.737156
0.737344
0.737537
0.737733
0.737932
0.738134
0.738339
0.738545
0.738753
0.738962
0.739172
0.739383
0.739594
0.739805
0.740017
0.740229
0.74044
0.740652
0.740863
0.741074
0.741285
0.741496
0.741707
0.741918
0.742129
0.742341
0.742554
0.742768
0.742983
0.743199
0.743418
0.743639
0.743862
0.744088
0.744316
0.744547
0.744782
0.745019
0.745259
0.745502
0.745748
0.745996
0.746246
0.746498
0.746752
0.747007
0.747263
0.74752
0.747777
0.748034
0.748291
0.748547
0.748803
0.749057
0.74931
0.749561
0.749811
0.750059
0.750305
0.750549
0.750791
0.751031
0.751268
0.751502
0.751734
0.751963
0.752188
0.752411
0.75263
0.752846
0.75306
0.75327
0.753477
0.753681
0.753883
0.754081
0.754277
0.754469
0.754658
0.754844
0.755027
0.755206
0.755381
0.755554
0.755723
0.755889
0.756053
0.756214
0.756372
0.756527
0.756681
0.756832
0.75698
0.757126
0.75727
0.757412
0.757551
0.757687
0.757821
0.757953
0.758082
0.758209
0.758334
0.758456
0.758575
0.758693
0.758808
0.758921
0.759032
0.759142
0.75925
0.759356
0.75946
0.759563
0.759665
0.759764
0.759862
0.759958
0.760053
0.760146
0.760237
0.760327
0.760415
0.760502
0.760588
0.760672
0.760755
0.760837
0.760917
0.760997
0.761075
0.761153
0.761229
0.761305
0.76138
0.761453
0.761526
0.761598
0.76167
0.76174
0.761809
0.761877
0.761943
0.762008
0.762073
0.762137
0.762199
0.76226
0.762319
0.762376
0.762433
0.762487
0.762541
0.762594
0.762646
0.762697
0.762747
0.762796
0.762845
0.762893
0.762937
0.735
0.735
0.735
0.735
0.735
0.735001
0.735001
0.735002
0.735004
0.735006
0.73501
0.735015
0.735022
0.735032
0.735045
0.735062
0.735083
0.735109
0.735141
0.73518
0.735226
0.73528
0.735344
0.735416
0.735499
0.735592
0.735696
0.73581
0.735935
0.73607
0.736215
0.736369
0.736531
0.736702
0.73688
0.737063
0.737253
0.737447
0.737645
0.737846
0.738049
0.738255
0.738462
0.73867
0.738878
0.739087
0.739296
0.739505
0.739714
0.739922
0.74013
0.740337
0.740543
0.740749
0.740954
0.741158
0.741361
0.741563
0.741765
0.741966
0.742166
0.742366
0.742565
0.742765
0.742965
0.743165
0.743366
0.743567
0.743771
0.743975
0.744182
0.74439
0.744601
0.744814
0.74503
0.745249
0.745471
0.745696
0.745923
0.746153
0.746386
0.746621
0.746859
0.747098
0.747339
0.747581
0.747824
0.748069
0.748313
0.748558
0.748802
0.749046
0.749289
0.749532
0.749773
0.750013
0.750252
0.75049
0.750725
0.750959
0.751192
0.751421
0.751649
0.751874
0.752096
0.752316
0.752532
0.752746
0.752957
0.753166
0.753371
0.753574
0.753774
0.753971
0.754166
0.754358
0.754547
0.754732
0.754915
0.755094
0.755271
0.755444
0.755613
0.75578
0.755944
0.756105
0.756264
0.75642
0.756574
0.756725
0.756874
0.757021
0.757166
0.757308
0.757448
0.757586
0.757721
0.757854
0.757984
0.758112
0.758238
0.758361
0.758482
0.758601
0.758717
0.758832
0.758944
0.759055
0.759163
0.75927
0.759376
0.75948
0.759582
0.759683
0.759782
0.759879
0.759974
0.760068
0.760161
0.760252
0.760341
0.760429
0.760516
0.760601
0.760685
0.760767
0.760848
0.760929
0.761008
0.761086
0.761163
0.76124
0.761315
0.761389
0.761463
0.761536
0.761607
0.761678
0.761748
0.761817
0.761885
0.761951
0.762016
0.762081
0.762144
0.762206
0.762267
0.762326
0.762383
0.762439
0.762494
0.762548
0.7626
0.762652
0.762703
0.762753
0.762802
0.76285
0.762898
0.762943
0.735
0.735
0.735
0.735
0.735001
0.735002
0.735003
0.735006
0.73501
0.735016
0.735025
0.735037
0.735053
0.735074
0.7351
0.735134
0.735174
0.735224
0.735282
0.73535
0.735429
0.735519
0.735621
0.735734
0.735859
0.735995
0.736141
0.736298
0.736464
0.736638
0.73682
0.737009
0.737203
0.737402
0.737604
0.73781
0.738018
0.738228
0.738439
0.73865
0.738861
0.739072
0.739282
0.739491
0.7397
0.739907
0.740113
0.740318
0.740521
0.740723
0.740924
0.741123
0.74132
0.741517
0.741712
0.741905
0.742097
0.742289
0.742478
0.742667
0.742855
0.743043
0.74323
0.743416
0.743603
0.74379
0.743977
0.744165
0.744354
0.744544
0.744736
0.74493
0.745125
0.745324
0.745524
0.745728
0.745934
0.746143
0.746355
0.74657
0.746787
0.747008
0.74723
0.747455
0.747681
0.74791
0.748139
0.74837
0.748602
0.748834
0.749067
0.749299
0.749532
0.749763
0.749995
0.750225
0.750454
0.750683
0.75091
0.751136
0.75136
0.751582
0.751803
0.752021
0.752236
0.75245
0.75266
0.752869
0.753074
0.753277
0.753478
0.753676
0.753871
0.754064
0.754255
0.754443
0.754628
0.75481
0.75499
0.755166
0.755339
0.755509
0.755676
0.75584
0.756002
0.756161
0.756317
0.756471
0.756623
0.756772
0.756919
0.757065
0.757208
0.757348
0.757487
0.757623
0.757757
0.757888
0.758017
0.758144
0.758268
0.758391
0.75851
0.758628
0.758744