/*--------------------------------*- C++ -*----------------------------------*\
| =========                 |                                                 |
| \\      /  F ield         | OpenFOAM: The Open Source CFD Toolbox           |
|  \\    /   O peration     | Version:  1.7.0                                 |
|   \\  /    A nd           | Web:      www.OpenFOAM.com                      |
|    \\/     M anipulation  |                                                 |
\*---------------------------------------------------------------------------*/
FoamFile
{
    version     2.0;
    format      ascii;
    class       volScalarField;
    location    "0.252";
    object      O2;
}
// * * * * * * * * * * * * * * * * * * * * * * * * * * * * * * * * * * * * * //

dimensions      [0 0 0 0 0 0 0];

internalField   nonuniform List<scalar> 
14800
(
0.223
0.223
0.223
0.223
0.223
0.223
0.223
0.223
0.223
0.223
0.223
0.223
0.223
0.223
0.223
0.223
0.222999
0.222999
0.222999
0.222999
0.222999
0.222999
0.222999
0.222999
0.222999
0.222999
0.222999
0.222999
0.222999
0.222999
0.223
0.223
0.223
0.223
0.223
0.223001
0.223001
0.223002
0.223002
0.223003
0.223005
0.223006
0.223008
0.22301
0.223014
0.223017
0.223022
0.223028
0.223035
0.223043
0.223054
0.223066
0.223081
0.2231
0.223121
0.223147
0.223176
0.223211
0.223252
0.223299
0.223352
0.223412
0.223478
0.223552
0.223631
0.223717
0.223809
0.223906
0.224007
0.224114
0.224224
0.224337
0.224452
0.22457
0.22469
0.224811
0.224933
0.225056
0.225179
0.225303
0.225427
0.22555
0.225673
0.225794
0.225915
0.226034
0.226152
0.226269
0.226383
0.226497
0.226608
0.226718
0.226827
0.226933
0.227038
0.227141
0.227242
0.227341
0.227439
0.227535
0.227629
0.227721
0.227811
0.2279
0.227987
0.228072
0.228156
0.228237
0.228317
0.228396
0.228472
0.228548
0.228622
0.228694
0.228765
0.228835
0.228904
0.22897
0.229036
0.2291
0.229163
0.229224
0.229284
0.229342
0.229399
0.229455
0.22951
0.229564
0.229618
0.229669
0.22972
0.22977
0.229819
0.229868
0.229916
0.229963
0.230009
0.230053
0.230097
0.23014
0.230182
0.230223
0.230264
0.230304
0.230341
0.23038
0.230417
0.230452
0.230488
0.230524
0.230559
0.230594
0.230627
0.23066
0.230693
0.230724
0.230756
0.230786
0.230816
0.230845
0.230874
0.230902
0.230931
0.230958
0.230986
0.231013
0.231039
0.231065
0.23109
0.231116
0.231141
0.231165
0.231189
0.231213
0.231236
0.231259
0.231282
0.231304
0.231327
0.231349
0.231371
0.231392
0.231411
0.231432
0.231453
0.231472
0.231492
0.231511
0.231529
0.231547
0.231563
0.231581
0.231598
0.231613
0.23163
0.231645
0.23166
0.231675
0.23169
0.231706
0.223
0.223
0.223
0.223
0.223
0.223
0.223
0.223
0.223
0.223
0.223
0.223
0.223
0.223
0.223
0.223
0.223
0.223
0.223
0.222999
0.222999
0.222999
0.222999
0.222999
0.222999
0.222999
0.222999
0.222999
0.222999
0.223
0.223
0.223
0.223
0.223
0.223
0.223001
0.223001
0.223002
0.223003
0.223004
0.223005
0.223007
0.223009
0.223012
0.223015
0.223019
0.223024
0.223031
0.223038
0.223047
0.223059
0.223072
0.223088
0.223107
0.22313
0.223156
0.223187
0.223224
0.223266
0.223313
0.223367
0.223428
0.223495
0.223568
0.223648
0.223734
0.223826
0.223923
0.224024
0.22413
0.224239
0.224352
0.224467
0.224584
0.224703
0.224824
0.224945
0.225068
0.225191
0.225314
0.225437
0.22556
0.225682
0.225803
0.225923
0.226042
0.22616
0.226276
0.22639
0.226503
0.226615
0.226724
0.226832
0.226939
0.227043
0.227146
0.227247
0.227346
0.227443
0.227539
0.227633
0.227725
0.227815
0.227904
0.227991
0.228076
0.228159
0.228241
0.228321
0.228399
0.228476
0.228551
0.228625
0.228697
0.228768
0.228838
0.228906
0.228973
0.229039
0.229103
0.229165
0.229226
0.229286
0.229345
0.229402
0.229458
0.229513
0.229567
0.22962
0.229672
0.229723
0.229773
0.229822
0.229871
0.229919
0.229965
0.230011
0.230056
0.2301
0.230143
0.230185
0.230226
0.230266
0.230306
0.230344
0.230382
0.230419
0.230455
0.230492
0.230527
0.230562
0.230596
0.23063
0.230663
0.230695
0.230727
0.230758
0.230789
0.230819
0.230848
0.230878
0.230906
0.230934
0.230961
0.230989
0.231016
0.231042
0.231068
0.231093
0.231119
0.231144
0.231168
0.231192
0.231216
0.231239
0.231262
0.231285
0.231308
0.231331
0.231352
0.231374
0.231395
0.231415
0.231436
0.231456
0.231475
0.231495
0.231515
0.231532
0.23155
0.231567
0.231585
0.231601
0.231617
0.231634
0.231649
0.231664
0.23168
0.231695
0.23171
0.223
0.223
0.223
0.223
0.223
0.223
0.223
0.223
0.223
0.223
0.223
0.223
0.223
0.223
0.223
0.223
0.223
0.223
0.223
0.223
0.223
0.223
0.223
0.222999
0.222999
0.223
0.223
0.223
0.223
0.223
0.223
0.223
0.223
0.223001
0.223001
0.223001
0.223002
0.223003
0.223004
0.223005
0.223007
0.223009
0.223012
0.223015
0.223019
0.223024
0.22303
0.223038
0.223046
0.223057
0.22307
0.223085
0.223103
0.223125
0.223149
0.223179
0.223212
0.223251
0.223295
0.223345
0.223401
0.223463
0.223531
0.223605
0.223686
0.223772
0.223863
0.22396
0.22406
0.224165
0.224274
0.224385
0.224499
0.224615
0.224733
0.224852
0.224973
0.225094
0.225215
0.225337
0.225459
0.225581
0.225702
0.225822
0.225942
0.22606
0.226177
0.226292
0.226405
0.226517
0.226628
0.226737
0.226844
0.22695
0.227054
0.227156
0.227257
0.227355
0.227452
0.227548
0.227641
0.227733
0.227823
0.227911
0.227998
0.228082
0.228165
0.228247
0.228326
0.228405
0.228481
0.228556
0.22863
0.228702
0.228773
0.228842
0.228911
0.228977
0.229043
0.229107
0.229169
0.22923
0.22929
0.229348
0.229405
0.229461
0.229516
0.22957
0.229623
0.229675
0.229726
0.229776
0.229825
0.229874
0.229922
0.229968
0.230014
0.230058
0.230102
0.230145
0.230187
0.230228
0.230269
0.230308
0.230347
0.230385
0.230422
0.230458
0.230494
0.230529
0.230564
0.230598
0.230632
0.230665
0.230697
0.230729
0.23076
0.230791
0.230821
0.23085
0.23088
0.230908
0.230936
0.230964
0.230991
0.231018
0.231044
0.23107
0.231095
0.231121
0.231146
0.231171
0.231195
0.231218
0.231242
0.231265
0.231288
0.23131
0.231333
0.231355
0.231376
0.231398
0.231418
0.231439
0.231459
0.231478
0.231498
0.231517
0.231535
0.231553
0.23157
0.231587
0.231604
0.23162
0.231636
0.231652
0.231667
0.231682
0.231697
0.231712
0.223
0.223
0.223
0.223
0.223
0.223
0.223
0.223
0.223
0.223
0.223
0.223
0.223
0.223
0.223
0.223
0.223
0.223
0.223
0.223
0.223
0.223
0.223
0.223
0.223
0.223
0.223
0.223
0.223
0.223
0.223
0.223
0.223001
0.223001
0.223002
0.223003
0.223003
0.223005
0.223006
0.223008
0.22301
0.223013
0.223017
0.223021
0.223026
0.223033
0.22304
0.223049
0.22306
0.223073
0.223089
0.223107
0.223128
0.223153
0.223181
0.223214
0.223251
0.223293
0.22334
0.223393
0.223451
0.223516
0.223586
0.223661
0.223742
0.223828
0.223919
0.224015
0.224115
0.224218
0.224325
0.224435
0.224547
0.224661
0.224777
0.224894
0.225013
0.225132
0.225252
0.225373
0.225493
0.225613
0.225732
0.225851
0.225969
0.226086
0.226201
0.226315
0.226427
0.226538
0.226648
0.226756
0.226862
0.226967
0.22707
0.227172
0.227271
0.227369
0.227465
0.22756
0.227653
0.227744
0.227834
0.227921
0.228007
0.228091
0.228174
0.228255
0.228334
0.228412
0.228489
0.228563
0.228637
0.228709
0.228779
0.228848
0.228916
0.228983
0.229048
0.229112
0.229174
0.229235
0.229294
0.229352
0.22941
0.229465
0.22952
0.229574
0.229627
0.229679
0.22973
0.22978
0.229829
0.229877
0.229925
0.229971
0.230017
0.230061
0.230105
0.230148
0.23019
0.230231
0.230271
0.230311
0.230349
0.230387
0.230424
0.23046
0.230496
0.230532
0.230566
0.2306
0.230634
0.230667
0.2307
0.230732
0.230762
0.230793
0.230823
0.230852
0.230882
0.23091
0.230938
0.230966
0.230993
0.23102
0.231046
0.231072
0.231097
0.231123
0.231148
0.231172
0.231197
0.23122
0.231243
0.231267
0.23129
0.231312
0.231335
0.231356
0.231378
0.231399
0.23142
0.231441
0.231461
0.23148
0.231499
0.231519
0.231537
0.231555
0.231572
0.231589
0.231606
0.231622
0.231638
0.231654
0.231669
0.231685
0.2317
0.231714
0.223
0.223
0.223
0.223
0.223
0.223
0.223
0.223
0.223
0.223
0.223
0.223
0.223
0.223
0.223
0.223
0.223
0.223
0.223
0.223
0.223
0.223
0.223
0.223
0.223
0.223
0.223
0.223
0.223
0.223
0.223001
0.223001
0.223002
0.223002
0.223003
0.223004
0.223006
0.223007
0.22301
0.223012
0.223016
0.22302
0.223024
0.22303
0.223037
0.223046
0.223056
0.223067
0.223081
0.223098
0.223117
0.223139
0.223164
0.223193
0.223226
0.223263
0.223305
0.223351
0.223402
0.223459
0.22352
0.223586
0.223658
0.223735
0.223816
0.223902
0.223993
0.224087
0.224186
0.224288
0.224392
0.2245
0.22461
0.224722
0.224835
0.22495
0.225066
0.225183
0.225301
0.225419
0.225537
0.225655
0.225772
0.225889
0.226005
0.22612
0.226233
0.226346
0.226457
0.226566
0.226674
0.226781
0.226886
0.22699
0.227092
0.227192
0.22729
0.227387
0.227483
0.227576
0.227668
0.227759
0.227848
0.227935
0.22802
0.228104
0.228186
0.228266
0.228345
0.228422
0.228498
0.228572
0.228645
0.228717
0.228787
0.228856
0.228924
0.22899
0.229055
0.229118
0.22918
0.229241
0.2293
0.229358
0.229415
0.229471
0.229525
0.229579
0.229632
0.229683
0.229734
0.229784
0.229833
0.229881
0.229928
0.229975
0.23002
0.230065
0.230108
0.230151
0.230193
0.230234
0.230274
0.230314
0.230352
0.23039
0.230427
0.230463
0.230499
0.230534
0.230569
0.230603
0.230636
0.23067
0.230702
0.230734
0.230765
0.230795
0.230825
0.230855
0.230884
0.230912
0.23094
0.230968
0.230995
0.231022
0.231048
0.231074
0.231099
0.231124
0.23115
0.231174
0.231198
0.231222
0.231245
0.231268
0.231291
0.231314
0.231336
0.231358
0.23138
0.231401
0.231422
0.231442
0.231462
0.231482
0.231501
0.231521
0.231539
0.231556
0.231574
0.231591
0.231608
0.231624
0.23164
0.231656
0.231671
0.231686
0.231702
0.231716
0.223
0.223
0.223
0.223
0.223
0.223
0.223
0.223
0.223
0.223
0.223
0.223
0.223
0.223
0.223
0.223
0.223
0.223
0.223
0.223
0.223
0.223
0.223
0.223
0.223
0.223
0.223
0.223
0.223001
0.223001
0.223002
0.223002
0.223003
0.223004
0.223006
0.223007
0.223009
0.223012
0.223015
0.223019
0.223024
0.223029
0.223036
0.223044
0.223054
0.223065
0.223078
0.223094
0.223112
0.223133
0.223156
0.223183
0.223214
0.223248
0.223286
0.223329
0.223375
0.223426
0.223482
0.223542
0.223606
0.223675
0.223748
0.223826
0.223908
0.223994
0.224083
0.224176
0.224273
0.224373
0.224475
0.22458
0.224687
0.224796
0.224907
0.225019
0.225132
0.225246
0.225361
0.225476
0.225591
0.225706
0.225821
0.225935
0.226049
0.226162
0.226273
0.226383
0.226492
0.2266
0.226706
0.226811
0.226915
0.227017
0.227118
0.227217
0.227314
0.22741
0.227504
0.227597
0.227688
0.227777
0.227865
0.227951
0.228036
0.228119
0.2282
0.22828
0.228358
0.228435
0.22851
0.228584
0.228656
0.228727
0.228797
0.228865
0.228933
0.228999
0.229063
0.229126
0.229188
0.229248
0.229307
0.229365
0.229421
0.229477
0.229531
0.229585
0.229637
0.229689
0.229739
0.229789
0.229838
0.229886
0.229933
0.229979
0.230024
0.230069
0.230112
0.230155
0.230197
0.230237
0.230277
0.230317
0.230355
0.230393
0.23043
0.230466
0.230502
0.230537
0.230572
0.230606
0.230639
0.230672
0.230704
0.230736
0.230767
0.230797
0.230827
0.230857
0.230886
0.230914
0.230942
0.23097
0.230997
0.231024
0.23105
0.231076
0.231101
0.231126
0.231151
0.231176
0.2312
0.231224
0.231247
0.23127
0.231293
0.231316
0.231338
0.23136
0.231382
0.231403
0.231423
0.231444
0.231464
0.231483
0.231503
0.231522
0.23154
0.231558
0.231575
0.231592
0.231609
0.231626
0.231642
0.231657
0.231672
0.231688
0.231703
0.231718
0.223
0.223
0.223
0.223
0.223
0.223
0.223
0.223
0.223
0.223
0.223
0.223
0.223
0.223
0.223
0.223
0.223
0.223
0.223
0.223
0.223
0.223
0.223
0.223
0.223
0.223
0.223001
0.223001
0.223002
0.223002
0.223003
0.223004
0.223006
0.223007
0.22301
0.223012
0.223015
0.223019
0.223024
0.22303
0.223037
0.223045
0.223054
0.223065
0.223079
0.223094
0.223111
0.223132
0.223155
0.223181
0.22321
0.223243
0.22328
0.22332
0.223364
0.223412
0.223463
0.223519
0.223578
0.223642
0.223709
0.22378
0.223855
0.223933
0.224015
0.2241
0.224189
0.22428
0.224375
0.224472
0.224571
0.224673
0.224777
0.224883
0.22499
0.225099
0.225209
0.22532
0.225431
0.225543
0.225655
0.225767
0.225879
0.22599
0.226101
0.226211
0.22632
0.226428
0.226535
0.22664
0.226745
0.226848
0.22695
0.22705
0.227149
0.227246
0.227342
0.227436
0.227529
0.22762
0.22771
0.227799
0.227886
0.227971
0.228054
0.228136
0.228217
0.228296
0.228373
0.228449
0.228524
0.228597
0.228669
0.228739
0.228809
0.228877
0.228943
0.229009
0.229073
0.229135
0.229197
0.229257
0.229315
0.229373
0.229429
0.229484
0.229538
0.229591
0.229644
0.229695
0.229745
0.229795
0.229843
0.229891
0.229938
0.229984
0.230029
0.230073
0.230117
0.230159
0.230201
0.230241
0.230281
0.230321
0.230359
0.230397
0.230433
0.23047
0.230505
0.23054
0.230575
0.230609
0.230642
0.230675
0.230707
0.230739
0.23077
0.2308
0.23083
0.230859
0.230888
0.230917
0.230945
0.230972
0.230999
0.231026
0.231052
0.231078
0.231103
0.231128
0.231153
0.231178
0.231202
0.231225
0.231249
0.231272
0.231295
0.231318
0.23134
0.231362
0.231383
0.231404
0.231425
0.231446
0.231466
0.231485
0.231505
0.231524
0.231542
0.231559
0.231577
0.231594
0.231611
0.231627
0.231643
0.231659
0.231674
0.23169
0.231705
0.231719
0.223
0.223
0.223
0.223
0.223
0.223
0.223
0.223
0.223
0.223
0.223
0.223
0.223
0.223
0.223
0.223
0.223
0.223
0.223
0.223
0.223
0.223
0.223
0.223001
0.223001
0.223001
0.223002
0.223003
0.223003
0.223005
0.223006
0.223008
0.22301
0.223013
0.223016
0.22302
0.223025
0.223031
0.223038
0.223046
0.223056
0.223068
0.223081
0.223097
0.223114
0.223135
0.223158
0.223184
0.223213
0.223246
0.223282
0.223321
0.223364
0.22341
0.22346
0.223513
0.223569
0.223629
0.223693
0.223759
0.223829
0.223901
0.223977
0.224056
0.224137
0.224221
0.224308
0.224398
0.22449
0.224584
0.224681
0.224779
0.224879
0.224982
0.225085
0.22519
0.225296
0.225403
0.225511
0.225619
0.225728
0.225836
0.225945
0.226053
0.226161
0.226268
0.226374
0.226479
0.226584
0.226687
0.226789
0.22689
0.226989
0.227088
0.227184
0.22728
0.227374
0.227467
0.227558
0.227648
0.227737
0.227824
0.227909
0.227993
0.228076
0.228157
0.228236
0.228314
0.228391
0.228466
0.22854
0.228612
0.228684
0.228753
0.228822
0.228889
0.228955
0.22902
0.229084
0.229146
0.229207
0.229266
0.229325
0.229382
0.229437
0.229492
0.229546
0.229599
0.229651
0.229702
0.229752
0.229801
0.229849
0.229897
0.229944
0.22999
0.230034
0.230078
0.230122
0.230164
0.230205
0.230246
0.230286
0.230325
0.230363
0.2304
0.230437
0.230473
0.230509
0.230544
0.230578
0.230612
0.230645
0.230678
0.23071
0.230742
0.230772
0.230803
0.230833
0.230862
0.230891
0.230919
0.230947
0.230975
0.231001
0.231028
0.231054
0.23108
0.231105
0.23113
0.231155
0.23118
0.231204
0.231227
0.231251
0.231274
0.231297
0.231319
0.231342
0.231363
0.231385
0.231406
0.231427
0.231447
0.231467
0.231487
0.231506
0.231525
0.231543
0.231561
0.231578
0.231596
0.231612
0.231629
0.231645
0.23166
0.231676
0.231691
0.231706
0.231721
0.223
0.223
0.223
0.223
0.223
0.223
0.223
0.223
0.223
0.223
0.223
0.223
0.223
0.223
0.223
0.223
0.223
0.223
0.223
0.223
0.223
0.223001
0.223001
0.223001
0.223002
0.223003
0.223004
0.223005
0.223006
0.223008
0.223011
0.223014
0.223017
0.223022
0.223027
0.223033
0.223041
0.223049
0.22306
0.223072
0.223086
0.223102
0.22312
0.223142
0.223165
0.223192
0.223222
0.223255
0.223291
0.22333
0.223373
0.223418
0.223467
0.223519
0.223574
0.223633
0.223693
0.223757
0.223823
0.223892
0.223963
0.224037
0.224113
0.224192
0.224273
0.224355
0.22444
0.224528
0.224617
0.224708
0.224801
0.224896
0.224993
0.225091
0.22519
0.225291
0.225393
0.225496
0.2256
0.225704
0.225809
0.225914
0.226019
0.226123
0.226228
0.226332
0.226435
0.226537
0.226638
0.226739
0.226838
0.226937
0.227034
0.22713
0.227225
0.227318
0.22741
0.227501
0.227591
0.227679
0.227766
0.227852
0.227936
0.228019
0.2281
0.22818
0.228258
0.228335
0.228411
0.228485
0.228558
0.22863
0.2287
0.228769
0.228837
0.228904
0.228969
0.229034
0.229096
0.229158
0.229218
0.229277
0.229335
0.229392
0.229447
0.229502
0.229555
0.229608
0.229659
0.22971
0.229759
0.229808
0.229857
0.229904
0.22995
0.229996
0.23004
0.230084
0.230127
0.230169
0.230211
0.230251
0.230291
0.23033
0.230368
0.230405
0.230441
0.230477
0.230513
0.230547
0.230582
0.230615
0.230649
0.230681
0.230713
0.230745
0.230775
0.230806
0.230836
0.230865
0.230894
0.230922
0.23095
0.230977
0.231004
0.23103
0.231056
0.231082
0.231108
0.231133
0.231157
0.231182
0.231206
0.231229
0.231253
0.231276
0.231299
0.231321
0.231344
0.231365
0.231387
0.231408
0.231429
0.231449
0.231469
0.231489
0.231508
0.231527
0.231545
0.231563
0.23158
0.231597
0.231614
0.23163
0.231646
0.231662
0.231677
0.231693
0.231708
0.231722
0.223
0.223
0.223
0.223
0.223
0.223
0.223
0.223
0.223
0.223
0.223
0.223
0.223
0.223
0.223
0.223
0.223
0.223
0.223
0.223001
0.223001
0.223001
0.223002
0.223003
0.223004
0.223005
0.223007
0.223009
0.223012
0.223015
0.223019
0.223023
0.223029
0.223036
0.223044
0.223054
0.223065
0.223078
0.223093
0.22311
0.22313
0.223152
0.223177
0.223205
0.223236
0.223269
0.223306
0.223347
0.22339
0.223436
0.223485
0.223537
0.223591
0.223649
0.223708
0.223771
0.223835
0.223901
0.22397
0.22404
0.224113
0.224187
0.224263
0.22434
0.22442
0.224501
0.224584
0.224668
0.224755
0.224842
0.224932
0.225023
0.225116
0.22521
0.225305
0.225402
0.225499
0.225598
0.225697
0.225798
0.225898
0.225999
0.2261
0.226201
0.226301
0.226402
0.226501
0.2266
0.226699
0.226796
0.226893
0.226988
0.227083
0.227177
0.227269
0.227361
0.227451
0.22754
0.227627
0.227714
0.227799
0.227883
0.227966
0.228047
0.228127
0.228206
0.228283
0.228359
0.228433
0.228507
0.228579
0.228649
0.228719
0.228787
0.228854
0.22892
0.228985
0.229048
0.229111
0.229172
0.229231
0.22929
0.229347
0.229403
0.229458
0.229512
0.229565
0.229617
0.229668
0.229719
0.229768
0.229817
0.229864
0.229911
0.229958
0.230003
0.230047
0.230091
0.230133
0.230175
0.230216
0.230257
0.230296
0.230335
0.230373
0.23041
0.230446
0.230482
0.230517
0.230552
0.230586
0.230619
0.230652
0.230685
0.230717
0.230748
0.230779
0.230809
0.230839
0.230868
0.230897
0.230925
0.230952
0.23098
0.231007
0.231033
0.231059
0.231085
0.23111
0.231135
0.23116
0.231184
0.231208
0.231231
0.231255
0.231278
0.231301
0.231323
0.231345
0.231367
0.231389
0.23141
0.23143
0.231451
0.231471
0.23149
0.23151
0.231529
0.231547
0.231564
0.231582
0.231599
0.231615
0.231632
0.231648
0.231663
0.231679
0.231694
0.231709
0.231724
0.223
0.223
0.223
0.223
0.223
0.223
0.223
0.223
0.223
0.223
0.223
0.223
0.223
0.223
0.223
0.223
0.223
0.223001
0.223001
0.223002
0.223002
0.223003
0.223004
0.223006
0.223008
0.22301
0.223013
0.223016
0.223021
0.223026
0.223032
0.22304
0.223049
0.223059
0.223072
0.223086
0.223102
0.223121
0.223142
0.223166
0.223192
0.223222
0.223255
0.22329
0.223329
0.22337
0.223415
0.223462
0.223512
0.223564
0.223619
0.223677
0.223736
0.223798
0.223861
0.223926
0.223993
0.224061
0.224131
0.224202
0.224275
0.224349
0.224424
0.2245
0.224578
0.224657
0.224737
0.224819
0.224902
0.224986
0.225072
0.225159
0.225247
0.225337
0.225428
0.22552
0.225613
0.225707
0.225802
0.225898
0.225994
0.226091
0.226188
0.226284
0.226381
0.226478
0.226574
0.226669
0.226764
0.226859
0.226952
0.227045
0.227137
0.227228
0.227318
0.227407
0.227495
0.227582
0.227667
0.227752
0.227836
0.227918
0.227999
0.228079
0.228157
0.228234
0.22831
0.228385
0.228458
0.22853
0.228601
0.228671
0.228739
0.228806
0.228873
0.228938
0.229002
0.229064
0.229126
0.229186
0.229245
0.229303
0.22936
0.229415
0.22947
0.229523
0.229576
0.229628
0.229678
0.229728
0.229777
0.229825
0.229873
0.22992
0.229965
0.23001
0.230055
0.230098
0.23014
0.230182
0.230223
0.230263
0.230302
0.23034
0.230378
0.230415
0.230451
0.230487
0.230522
0.230556
0.23059
0.230624
0.230657
0.230689
0.230721
0.230752
0.230782
0.230813
0.230842
0.230871
0.2309
0.230928
0.230956
0.230983
0.23101
0.231036
0.231062
0.231087
0.231113
0.231137
0.231162
0.231186
0.23121
0.231234
0.231257
0.23128
0.231303
0.231325
0.231348
0.231369
0.231391
0.231412
0.231432
0.231453
0.231473
0.231492
0.231512
0.23153
0.231548
0.231566
0.231583
0.2316
0.231617
0.231633
0.231649
0.231665
0.23168
0.231696
0.231711
0.231725
0.223
0.223
0.223
0.223
0.223
0.223
0.223
0.223
0.223
0.223
0.223
0.223
0.223
0.223
0.223
0.223001
0.223001
0.223002
0.223002
0.223003
0.223005
0.223006
0.223008
0.223011
0.223014
0.223018
0.223023
0.223029
0.223036
0.223045
0.223055
0.223067
0.223081
0.223096
0.223114
0.223135
0.223158
0.223184
0.223213
0.223245
0.22328
0.223318
0.223359
0.223402
0.223448
0.223497
0.223549
0.223603
0.223658
0.223716
0.223776
0.223838
0.223901
0.223965
0.224031
0.224098
0.224166
0.224236
0.224306
0.224377
0.224449
0.224522
0.224595
0.22467
0.224746
0.224822
0.224899
0.224978
0.225057
0.225138
0.225219
0.225302
0.225386
0.225472
0.225558
0.225646
0.225734
0.225824
0.225914
0.226005
0.226097
0.226189
0.226281
0.226374
0.226467
0.226559
0.226651
0.226743
0.226835
0.226926
0.227016
0.227106
0.227195
0.227283
0.227371
0.227457
0.227543
0.227627
0.227711
0.227793
0.227875
0.227955
0.228034
0.228113
0.228189
0.228265
0.228339
0.228413
0.228485
0.228556
0.228625
0.228694
0.228761
0.228828
0.228893
0.228957
0.22902
0.229082
0.229143
0.229202
0.229261
0.229318
0.229374
0.229429
0.229483
0.229536
0.229588
0.229639
0.229689
0.229739
0.229787
0.229835
0.229882
0.229929
0.229974
0.230019
0.230062
0.230105
0.230148
0.230189
0.230229
0.230269
0.230308
0.230346
0.230384
0.230421
0.230457
0.230492
0.230527
0.230561
0.230595
0.230628
0.230661
0.230693
0.230725
0.230756
0.230786
0.230816
0.230846
0.230875
0.230903
0.230931
0.230959
0.230986
0.231013
0.231039
0.231065
0.23109
0.231115
0.23114
0.231165
0.231189
0.231213
0.231236
0.231259
0.231282
0.231305
0.231328
0.23135
0.231371
0.231393
0.231414
0.231434
0.231455
0.231475
0.231494
0.231514
0.231532
0.23155
0.231568
0.231585
0.231602
0.231619
0.231635
0.231651
0.231667
0.231682
0.231697
0.231713
0.231727
0.223
0.223
0.223
0.223
0.223
0.223
0.223
0.223
0.223
0.223
0.223
0.223
0.223
0.223001
0.223001
0.223002
0.223003
0.223004
0.223005
0.223007
0.223009
0.223012
0.223016
0.223021
0.223027
0.223033
0.223042
0.223052
0.223063
0.223077
0.223092
0.22311
0.223131
0.223154
0.22318
0.223209
0.22324
0.223275
0.223313
0.223353
0.223397
0.223443
0.223492
0.223543
0.223597
0.223652
0.223709
0.223768
0.223829
0.223891
0.223954
0.224019
0.224084
0.22415
0.224218
0.224285
0.224354
0.224423
0.224493
0.224563
0.224634
0.224705
0.224776
0.224849
0.224921
0.224995
0.225069
0.225144
0.22522
0.225296
0.225374
0.225452
0.225532
0.225613
0.225695
0.225777
0.225861
0.225946
0.226032
0.226118
0.226205
0.226293
0.226381
0.226469
0.226557
0.226646
0.226734
0.226822
0.22691
0.226998
0.227085
0.227171
0.227257
0.227343
0.227427
0.227511
0.227594
0.227676
0.227757
0.227838
0.227917
0.227995
0.228073
0.228149
0.228224
0.228298
0.228371
0.228443
0.228514
0.228583
0.228651
0.228719
0.228785
0.22885
0.228915
0.228978
0.22904
0.229101
0.229161
0.22922
0.229278
0.229334
0.229389
0.229444
0.229497
0.229549
0.229601
0.229651
0.229701
0.22975
0.229798
0.229846
0.229892
0.229938
0.229983
0.230028
0.230071
0.230114
0.230156
0.230197
0.230237
0.230276
0.230315
0.230353
0.23039
0.230427
0.230463
0.230498
0.230533
0.230567
0.2306
0.230633
0.230666
0.230698
0.230729
0.23076
0.230791
0.23082
0.23085
0.230879
0.230907
0.230935
0.230962
0.230989
0.231016
0.231042
0.231068
0.231093
0.231118
0.231143
0.231167
0.231192
0.231215
0.231239
0.231262
0.231285
0.231308
0.23133
0.231352
0.231374
0.231395
0.231416
0.231436
0.231457
0.231477
0.231496
0.231515
0.231534
0.231552
0.23157
0.231587
0.231604
0.23162
0.231637
0.231653
0.231668
0.231684
0.231699
0.231714
0.231728
0.223
0.223
0.223
0.223
0.223
0.223
0.223
0.223
0.223
0.223
0.223
0.223001
0.223001
0.223002
0.223003
0.223004
0.223006
0.223008
0.223011
0.223014
0.223019
0.223024
0.223031
0.223039
0.223049
0.22306
0.223074
0.22309
0.223108
0.223129
0.223152
0.223178
0.223208
0.22324
0.223275
0.223314
0.223355
0.223399
0.223446
0.223495
0.223547
0.223601
0.223657
0.223715
0.223774
0.223834
0.223896
0.223959
0.224023
0.224087
0.224153
0.224219
0.224285
0.224352
0.224419
0.224487
0.224554
0.224622
0.224691
0.224759
0.224828
0.224896
0.224966
0.225035
0.225105
0.225175
0.225245
0.225317
0.225388
0.225461
0.225534
0.225608
0.225684
0.22576
0.225837
0.225915
0.225994
0.226074
0.226155
0.226236
0.226318
0.226401
0.226485
0.226569
0.226653
0.226737
0.226821
0.226906
0.22699
0.227074
0.227157
0.227241
0.227323
0.227406
0.227487
0.227568
0.227648
0.227728
0.227807
0.227885
0.227962
0.228038
0.228114
0.228188
0.228261
0.228334
0.228405
0.228475
0.228544
0.228612
0.22868
0.228746
0.228811
0.228875
0.228938
0.229
0.229061
0.229122
0.229181
0.229239
0.229295
0.229351
0.229406
0.229459
0.229512
0.229564
0.229615
0.229665
0.229714
0.229762
0.22981
0.229857
0.229903
0.229949
0.229993
0.230037
0.23008
0.230123
0.230164
0.230205
0.230245
0.230284
0.230322
0.23036
0.230397
0.230433
0.230469
0.230504
0.230539
0.230572
0.230606
0.230639
0.230671
0.230703
0.230734
0.230765
0.230795
0.230825
0.230854
0.230883
0.230911
0.230939
0.230966
0.230993
0.231019
0.231045
0.231071
0.231096
0.231121
0.231146
0.23117
0.231194
0.231218
0.231242
0.231265
0.231288
0.23131
0.231332
0.231354
0.231376
0.231397
0.231418
0.231439
0.231459
0.231479
0.231498
0.231517
0.231536
0.231554
0.231572
0.231589
0.231606
0.231622
0.231638
0.231654
0.23167
0.231685
0.231701
0.231716
0.23173
0.223
0.223
0.223
0.223
0.223
0.223
0.223
0.223
0.223
0.223001
0.223001
0.223002
0.223003
0.223004
0.223006
0.223009
0.223012
0.223016
0.223022
0.223028
0.223037
0.223046
0.223058
0.223072
0.223088
0.223107
0.223128
0.223153
0.22318
0.22321
0.223244
0.223281
0.223321
0.223363
0.223409
0.223457
0.223508
0.223561
0.223617
0.223674
0.223733
0.223793
0.223854
0.223916
0.223979
0.224043
0.224108
0.224173
0.224238
0.224304
0.22437
0.224436
0.224502
0.224568
0.224634
0.2247
0.224766
0.224832
0.224898
0.224964
0.22503
0.225096
0.225162
0.225228
0.225294
0.225361
0.225427
0.225495
0.225562
0.225631
0.2257
0.225769
0.22584
0.225911
0.225984
0.226057
0.226131
0.226206
0.226282
0.226359
0.226436
0.226515
0.226593
0.226673
0.226752
0.226832
0.226913
0.226993
0.227073
0.227154
0.227234
0.227313
0.227393
0.227472
0.22755
0.227628
0.227706
0.227783
0.227859
0.227935
0.22801
0.228084
0.228157
0.22823
0.228301
0.228371
0.228441
0.22851
0.228577
0.228644
0.228709
0.228774
0.228838
0.228901
0.228963
0.229024
0.229084
0.229143
0.229202
0.229259
0.229315
0.229369
0.229423
0.229476
0.229528
0.229579
0.229629
0.229679
0.229728
0.229776
0.229823
0.229869
0.229915
0.22996
0.230004
0.230048
0.23009
0.230132
0.230173
0.230214
0.230253
0.230292
0.23033
0.230368
0.230404
0.23044
0.230476
0.230511
0.230545
0.230578
0.230612
0.230644
0.230677
0.230708
0.230739
0.23077
0.2308
0.230829
0.230859
0.230887
0.230915
0.230943
0.23097
0.230997
0.231023
0.231049
0.231075
0.2311
0.231125
0.231149
0.231173
0.231197
0.231221
0.231244
0.231267
0.23129
0.231313
0.231335
0.231357
0.231379
0.2314
0.23142
0.231441
0.231461
0.231481
0.2315
0.231519
0.231538
0.231556
0.231574
0.231591
0.231608
0.231624
0.23164
0.231656
0.231672
0.231687
0.231702
0.231717
0.231731
0.223
0.223
0.223
0.223
0.223
0.223
0.223
0.223001
0.223001
0.223002
0.223003
0.223005
0.223007
0.22301
0.223014
0.223019
0.223026
0.223034
0.223044
0.223056
0.223071
0.223088
0.223107
0.22313
0.223156
0.223185
0.223217
0.223253
0.223292
0.223334
0.22338
0.223428
0.223479
0.223532
0.223587
0.223645
0.223704
0.223765
0.223827
0.223889
0.223953
0.224017
0.224082
0.224147
0.224212
0.224277
0.224342
0.224408
0.224473
0.224538
0.224603
0.224668
0.224732
0.224797
0.224861
0.224924
0.224988
0.225051
0.225114
0.225177
0.225239
0.225302
0.225364
0.225427
0.225489
0.225552
0.225614
0.225677
0.225741
0.225805
0.225869
0.225934
0.226
0.226067
0.226135
0.226203
0.226272
0.226343
0.226414
0.226486
0.226558
0.226632
0.226706
0.226781
0.226856
0.226932
0.227008
0.227084
0.22716
0.227237
0.227313
0.227389
0.227465
0.227541
0.227617
0.227692
0.227766
0.227841
0.227914
0.227987
0.22806
0.228132
0.228203
0.228273
0.228343
0.228411
0.228479
0.228546
0.228612
0.228677
0.228741
0.228805
0.228867
0.228929
0.22899
0.229049
0.229109
0.229167
0.229224
0.22928
0.229335
0.229389
0.229442
0.229494
0.229545
0.229596
0.229645
0.229694
0.229742
0.229789
0.229836
0.229882
0.229927
0.229972
0.230015
0.230058
0.230101
0.230142
0.230183
0.230223
0.230262
0.230301
0.230339
0.230376
0.230412
0.230448
0.230483
0.230518
0.230552
0.230585
0.230618
0.23065
0.230682
0.230714
0.230745
0.230775
0.230805
0.230834
0.230863
0.230892
0.23092
0.230947
0.230974
0.231001
0.231027
0.231053
0.231078
0.231103
0.231128
0.231153
0.231177
0.231201
0.231224
0.231247
0.23127
0.231293
0.231316
0.231338
0.23136
0.231381
0.231402
0.231423
0.231443
0.231463
0.231483
0.231503
0.231522
0.23154
0.231558
0.231576
0.231593
0.231609
0.231626
0.231642
0.231658
0.231674
0.231689
0.231704
0.231719
0.231733
0.223
0.223
0.223
0.223
0.223
0.223001
0.223001
0.223002
0.223003
0.223005
0.223008
0.223012
0.223017
0.223023
0.223031
0.223042
0.223055
0.22307
0.223088
0.223109
0.223134
0.223162
0.223194
0.223229
0.223268
0.223311
0.223357
0.223406
0.223457
0.223512
0.223569
0.223628
0.223688
0.223751
0.223814
0.223878
0.223943
0.224009
0.224075
0.224141
0.224207
0.224272
0.224338
0.224404
0.224469
0.224533
0.224598
0.224662
0.224725
0.224788
0.224851
0.224913
0.224975
0.225036
0.225097
0.225158
0.225218
0.225278
0.225337
0.225396
0.225455
0.225513
0.225572
0.22563
0.225688
0.225747
0.225805
0.225864
0.225923
0.225983
0.226042
0.226103
0.226164
0.226226
0.226289
0.226353
0.226417
0.226482
0.226549
0.226616
0.226684
0.226752
0.226822
0.226892
0.226963
0.227034
0.227106
0.227178
0.227251
0.227323
0.227396
0.227469
0.227541
0.227614
0.227686
0.227758
0.22783
0.227901
0.227972
0.228043
0.228113
0.228182
0.228251
0.228319
0.228386
0.228453
0.228519
0.228584
0.228648
0.228712
0.228775
0.228836
0.228898
0.228958
0.229017
0.229076
0.229134
0.229191
0.229247
0.229302
0.229356
0.229409
0.229462
0.229513
0.229563
0.229613
0.229662
0.22971
0.229757
0.229804
0.22985
0.229895
0.22994
0.229984
0.230027
0.23007
0.230112
0.230153
0.230193
0.230233
0.230272
0.23031
0.230347
0.230384
0.23042
0.230456
0.230491
0.230525
0.230559
0.230592
0.230624
0.230657
0.230688
0.23072
0.23075
0.230781
0.23081
0.23084
0.230868
0.230897
0.230924
0.230952
0.230979
0.231005
0.231031
0.231057
0.231082
0.231107
0.231132
0.231156
0.23118
0.231204
0.231227
0.231251
0.231273
0.231296
0.231318
0.231341
0.231362
0.231384
0.231405
0.231425
0.231446
0.231466
0.231486