/*--------------------------------*- C++ -*----------------------------------*\
| =========                 |                                                 |
| \\      /  F ield         | OpenFOAM: The Open Source CFD Toolbox           |
|  \\    /   O peration     | Version:  1.7.0                                 |
|   \\  /    A nd           | Web:      www.OpenFOAM.com                      |
|    \\/     M anipulation  |                                                 |
\*---------------------------------------------------------------------------*/
FoamFile
{
    version     2.0;
    format      ascii;
    class       volScalarField;
    location    "0.252";
    object      T;
}
// * * * * * * * * * * * * * * * * * * * * * * * * * * * * * * * * * * * * * //

dimensions      [0 0 0 1 0 0 0];

internalField   nonuniform List<scalar> 
14800
(
276
276
276
276
276
276
276
276
276
276
276
276
276
276
276
276
276
276
276
276
276
276
276
275.999
275.999
275.999
275.999
276
276
275.999
276
276
276
276.001
276.001
276.002
276.003
276.004
276.006
276.008
276.011
276.014
276.018
276.024
276.03
276.039
276.049
276.061
276.076
276.095
276.117
276.145
276.177
276.217
276.263
276.318
276.383
276.459
276.544
276.644
276.757
276.88
277.021
277.176
277.342
277.525
277.714
277.923
278.139
278.36
278.593
278.831
279.078
279.331
279.584
279.833
280.095
280.355
280.621
280.885
281.147
281.4
281.657
281.919
282.186
282.439
282.675
282.938
283.19
283.425
283.672
283.915
284.146
284.381
284.593
284.829
285.039
285.256
285.475
285.677
285.878
286.085
286.279
286.483
286.673
286.858
287.047
287.231
287.394
287.574
287.752
287.918
288.08
288.246
288.404
288.56
288.706
288.861
289.003
289.152
289.297
289.428
289.566
289.698
289.824
289.956
290.08
290.199
290.32
290.437
290.556
290.667
290.776
290.883
290.991
291.095
291.198
291.297
291.398
291.496
291.59
291.682
291.773
291.863
291.948
292.038
292.121
292.205
292.284
292.364
292.444
292.519
292.595
292.669
292.744
292.814
292.886
292.954
293.023
293.089
293.154
293.219
293.281
293.342
293.402
293.461
293.521
293.577
293.635
293.69
293.745
293.798
293.852
293.903
293.954
294.001
294.055
294.102
294.154
294.202
294.249
294.295
294.341
294.388
294.435
294.482
294.528
294.572
294.616
294.662
294.706
294.753
294.794
294.837
294.879
294.922
294.964
295.003
295.042
295.079
276
276
276
276
276
276
276
276
276
276
276
276
276
276
276
276
276
276
276
276
276
276
275.999
275.999
275.999
276
276
276
276
276
276
276
276
276.001
276.002
276.002
276.004
276.005
276.007
276.009
276.012
276.016
276.021
276.027
276.034
276.043
276.054
276.068
276.084
276.104
276.128
276.157
276.192
276.233
276.282
276.339
276.407
276.485
276.574
276.675
276.79
276.917
277.059
277.215
277.384
277.566
277.76
277.964
278.18
278.402
278.634
278.872
279.119
279.367
279.623
279.876
280.137
280.396
280.658
280.922
281.185
281.44
281.701
281.963
282.222
282.475
282.724
282.977
283.227
283.466
283.706
283.947
284.178
284.407
284.632
284.859
285.073
285.29
285.505
285.71
285.912
286.116
286.313
286.51
286.701
286.887
287.07
287.253
287.428
287.603
287.775
287.943
288.106
288.268
288.426
288.582
288.732
288.882
289.027
289.171
289.313
289.448
289.583
289.714
289.844
289.971
290.096
290.217
290.337
290.454
290.57
290.683
290.792
290.901
291.006
291.111
291.214
291.314
291.412
291.509
291.604
291.696
291.787
291.876
291.963
292.05
292.134
292.217
292.298
292.377
292.457
292.533
292.609
292.684
292.757
292.829
292.899
292.968
293.036
293.102
293.167
293.231
293.293
293.354
293.415
293.474
293.534
293.591
293.647
293.702
293.757
293.811
293.865
293.917
293.967
294.017
294.068
294.117
294.167
294.215
294.263
294.31
294.356
294.403
294.45
294.496
294.542
294.587
294.632
294.677
294.721
294.766
294.809
294.853
294.895
294.937
294.977
295.018
295.057
295.092
276
276
276
276
276
276
276
276
276
276
276
276
276
276
276
276
276
276
276
276
276
276
276
276
276
276
276
276
276
276
276
276.001
276.001
276.002
276.003
276.004
276.005
276.007
276.01
276.013
276.017
276.021
276.027
276.034
276.043
276.054
276.067
276.083
276.102
276.125
276.153
276.186
276.225
276.271
276.325
276.387
276.46
276.543
276.637
276.744
276.863
276.995
277.14
277.297
277.468
277.65
277.844
278.048
278.262
278.483
278.714
278.951
279.195
279.443
279.693
279.947
280.205
280.463
280.723
280.984
281.244
281.502
281.76
282.019
282.275
282.526
282.777
283.026
283.272
283.512
283.75
283.988
284.22
284.445
284.672
284.895
285.112
285.327
285.538
285.744
285.947
286.149
286.345
286.539
286.728
286.915
287.098
287.277
287.454
287.627
287.798
287.966
288.129
288.289
288.446
288.601
288.752
288.901
289.045
289.188
289.328
289.464
289.599
289.73
289.859
289.986
290.11
290.232
290.351
290.468
290.583
290.695
290.805
290.913
291.019
291.123
291.225
291.325
291.424
291.52
291.614
291.706
291.797
291.886
291.974
292.06
292.144
292.227
292.308
292.387
292.466
292.543
292.619
292.693
292.766
292.838
292.908
292.977
293.044
293.111
293.176
293.239
293.302
293.363
293.424
293.483
293.542
293.599
293.656
293.711
293.766
293.82
293.873
293.925
293.976
294.026
294.076
294.126
294.175
294.224
294.272
294.319
294.365
294.412
294.459
294.505
294.551
294.596
294.641
294.686
294.73
294.774
294.818
294.862
294.904
294.945
294.986
295.027
295.066
295.101
276
276
276
276
276
276
276
276
276
276
276
276
276
276
276
276
276
276
276
276
276
276
276
276
276
276
276
276
276
276.001
276.001
276.002
276.002
276.003
276.005
276.006
276.008
276.011
276.014
276.019
276.024
276.03
276.038
276.047
276.059
276.072
276.089
276.109
276.133
276.161
276.194
276.233
276.279
276.332
276.394
276.464
276.544
276.635
276.736
276.849
276.974
277.111
277.26
277.419
277.592
277.775
277.968
278.17
278.383
278.603
278.83
279.065
279.305
279.549
279.796
280.047
280.301
280.557
280.813
281.069
281.327
281.582
281.837
282.093
282.345
282.593
282.842
283.089
283.33
283.569
283.806
284.041
284.27
284.495
284.72
284.94
285.155
285.369
285.577
285.784
285.986
286.185
286.38
286.573
286.761
286.946
287.128
287.306
287.481
287.654
287.824
287.99
288.153
288.312
288.469
288.622
288.772
288.921
289.065
289.206
289.346
289.482
289.615
289.746
289.875
290.001
290.125
290.246
290.365
290.481
290.596
290.708
290.817
290.925
291.031
291.135
291.236
291.336
291.434
291.53
291.624
291.716
291.807
291.896
291.983
292.069
292.153
292.235
292.317
292.396
292.474
292.551
292.627
292.701
292.774
292.846
292.916
292.984
293.052
293.118
293.183
293.247
293.309
293.371
293.431
293.49
293.549
293.606
293.662
293.718
293.773
293.827
293.88
293.932
293.983
294.033
294.083
294.133
294.183
294.231
294.279
294.326
294.372
294.419
294.465
294.512
294.558
294.603
294.648
294.692
294.737
294.781
294.825
294.868
294.911
294.952
294.993
295.034
295.073
295.108
276
276
276
276
276
276
276
276
276
276
276
276
276
276
276
276
276
276
276
276
276
276
276
276
276
276
276
276.001
276.001
276.002
276.002
276.003
276.005
276.006
276.008
276.011
276.014
276.017
276.022
276.028
276.035
276.044
276.055
276.068
276.083
276.101
276.123
276.148
276.179
276.214
276.255
276.303
276.358
276.42
276.492
276.572
276.661
276.761
276.871
276.991
277.123
277.265
277.418
277.58
277.754
277.937
278.13
278.331
278.541
278.758
278.981
279.212
279.446
279.686
279.929
280.176
280.424
280.675
280.926
281.179
281.431
281.682
281.934
282.184
282.432
282.678
282.922
283.165
283.403
283.64
283.873
284.104
284.331
284.554
284.776
284.994
285.208
285.419
285.625
285.83
286.03
286.227
286.421
286.612
286.798
286.982
287.163
287.339
287.513
287.685
287.852
288.018
288.179
288.338
288.493
288.646
288.796
288.942
289.086
289.227
289.365
289.501
289.634
289.764
289.892
290.018
290.141
290.262
290.38
290.496
290.61
290.722
290.831
290.938
291.044
291.147
291.248
291.348
291.445
291.54
291.634
291.726
291.817
291.905
291.992
292.078
292.162
292.244
292.325
292.404
292.482
292.559
292.635
292.709
292.782
292.853
292.923
292.992
293.059
293.125
293.19
293.254
293.316
293.377
293.438
293.497
293.555
293.613
293.669
293.724
293.779
293.833
293.886
293.938
293.989
294.039
294.089
294.139
294.189
294.237
294.285
294.332
294.378
294.425
294.471
294.518
294.564
294.609
294.654
294.698
294.742
294.787
294.831
294.874
294.916
294.958
294.999
295.039
295.078
295.113
276
276
276
276
276
276
276
276
276
276
276
276
276
276
276
276
276
276
276
276
276
276
276
276
276
276.001
276.001
276.002
276.002
276.003
276.004
276.006
276.008
276.01
276.013
276.017
276.022
276.028
276.035
276.043
276.054
276.066
276.081
276.099
276.119
276.144
276.173
276.207
276.246
276.29
276.342
276.4
276.466
276.541
276.623
276.714
276.815
276.924
277.044
277.172
277.31
277.457
277.614
277.779
277.953
278.136
278.327
278.526
278.733
278.946
279.165
279.389
279.619
279.853
280.09
280.33
280.573
280.818
281.063
281.31
281.557
281.802
282.048
282.293
282.537
282.779
283.018
283.256
283.491
283.723
283.953
284.18
284.404
284.624
284.843
285.057
285.268
285.477
285.681
285.883
286.081
286.276
286.468
286.656
286.841
287.023
287.202
287.377
287.549
287.719
287.886
288.049
288.21
288.367
288.521
288.673
288.821
288.967
289.11
289.25
289.387
289.522
289.654
289.784
289.911
290.036
290.158
290.279
290.396
290.512
290.625
290.736
290.845
290.952
291.057
291.16
291.261
291.36
291.457
291.552
291.646
291.737
291.827
291.916
292.002
292.087
292.171
292.253
292.334
292.413
292.491
292.568
292.643
292.717
292.79
292.861
292.931
292.999
293.066
293.132
293.197
293.26
293.323
293.384
293.444
293.503
293.562
293.619
293.675
293.73
293.785
293.839
293.892
293.944
293.995
294.045
294.095
294.145
294.194
294.243
294.291
294.337
294.384
294.43
294.477
294.523
294.569
294.614
294.659
294.703
294.748
294.792
294.836
294.879
294.921
294.963
295.004
295.044
295.083
295.118
276
276
276
276
276
276
276
276
276
276
276
276
276
276
276
276
276
276
276
276
276
276
276.001
276.001
276.001
276.002
276.002
276.003
276.005
276.006
276.008
276.011
276.014
276.018
276.022
276.028
276.035
276.044
276.054
276.067
276.082
276.1
276.121
276.145
276.174
276.207
276.245
276.289
276.339
276.396
276.46
276.531
276.61
276.697
276.792
276.895
277.006
277.126
277.253
277.39
277.534
277.686
277.846
278.013
278.187
278.37
278.559
278.754
278.957
279.165
279.378
279.596
279.819
280.047
280.277
280.51
280.746
280.984
281.222
281.462
281.702
281.942
282.182
282.42
282.658
282.894
283.128
283.361
283.592
283.819
284.045
284.268
284.488
284.704
284.919
285.13
285.338
285.542
285.744
285.944
286.139
286.331
286.521
286.707
286.89
287.069
287.247
287.42
287.59
287.758
287.923
288.085
288.244
288.399
288.552
288.702
288.85
288.994
289.136
289.275
289.411
289.545
289.677
289.805
289.932
290.056
290.178
290.297
290.414
290.529
290.642
290.752
290.861
290.967
291.072
291.174
291.274
291.373
291.47
291.564
291.657
291.749
291.838
291.926
292.013
292.098
292.181
292.263
292.344
292.422
292.5
292.576
292.651
292.725
292.798
292.869
292.939
293.007
293.074
293.139
293.204
293.267
293.329
293.391
293.451
293.51
293.568
293.625
293.681
293.736
293.791
293.845
293.898
293.95
294.001
294.051
294.101
294.151
294.2
294.248
294.296
294.343
294.389
294.435
294.482
294.528
294.574
294.619
294.664
294.708
294.753
294.797
294.841
294.884
294.926
294.968
295.009
295.049
295.088
295.123
276
276
276
276
276
276
276
276
276
276
276
276
276
276
276
276
276
276
276
276
276.001
276.001
276.001
276.002
276.003
276.003
276.005
276.006
276.008
276.011
276.014
276.018
276.023
276.029
276.037
276.046
276.057
276.07
276.085
276.104
276.125
276.15
276.18
276.213
276.252
276.297
276.347
276.403
276.467
276.537
276.615
276.7
276.792
276.892
277
277.115
277.236
277.366
277.501
277.644
277.794
277.949
278.112
278.279
278.454
278.635
278.821
279.012
279.21
279.412
279.619
279.83
280.046
280.266
280.489
280.714
280.942
281.171
281.402
281.634
281.866
282.099
282.333
282.564
282.795
283.025
283.254
283.481
283.705
283.928
284.149
284.367
284.582
284.795
285.005
285.212
285.416
285.618
285.816
286.012
286.204
286.394
286.58
286.764
286.944
287.121
287.296
287.467
287.636
287.801
287.964
288.124
288.282
288.436
288.587
288.736
288.882
289.025
289.166
289.303
289.439
289.571
289.702
289.829
289.955
290.078
290.199
290.318
290.434
290.548
290.66
290.77
290.878
290.984
291.087
291.189
291.289
291.387
291.483
291.578
291.67
291.761
291.85
291.938
292.024
292.109
292.192
292.274
292.354
292.432
292.509
292.586
292.66
292.734
292.806
292.877
292.947
293.015
293.081
293.147
293.211
293.275
293.337
293.397
293.457
293.516
293.574
293.631
293.687
293.742
293.797
293.851
293.904
293.956
294.006
294.056
294.106
294.156
294.205
294.254
294.301
294.348
294.394
294.441
294.487
294.533
294.579
294.624
294.669
294.713
294.757
294.802
294.845
294.888
294.931
294.972
295.013
295.053
295.093
295.127
276
276
276
276
276
276
276
276
276
276
276
276
276
276
276
276
276
276
276.001
276.001
276.001
276.002
276.003
276.004
276.005
276.007
276.009
276.012
276.015
276.019
276.025
276.031
276.039
276.049
276.061
276.075
276.091
276.11
276.133
276.16
276.19
276.226
276.266
276.312
276.364
276.421
276.486
276.557
276.635
276.721
276.813
276.912
277.018
277.13
277.249
277.375
277.506
277.643
277.785
277.933
278.086
278.245
278.408
278.576
278.749
278.927
279.11
279.297
279.489
279.685
279.885
280.089
280.297
280.508
280.722
280.939
281.158
281.379
281.602
281.825
282.05
282.274
282.499
282.724
282.948
283.171
283.393
283.614
283.832
284.049
284.264
284.477
284.686
284.894
285.1
285.303
285.503
285.7
285.895
286.087
286.276
286.462
286.646
286.826
287.004
287.179
287.351
287.52
287.686
287.849
288.01
288.168
288.323
288.476
288.626
288.773
288.917
289.059
289.198
289.334
289.468
289.6
289.729
289.856
289.98
290.102
290.222
290.34
290.456
290.569
290.68
290.789
290.897
291.002
291.105
291.206
291.305
291.403
291.498
291.592
291.684
291.775
291.863
291.951
292.036
292.121
292.203
292.285
292.365
292.443
292.52
292.595
292.67
292.743
292.815
292.886
292.955
293.023
293.09
293.155
293.219
293.282
293.344
293.405
293.464
293.523
293.581
293.638
293.694
293.749
293.803
293.857
293.91
293.961
294.012
294.062
294.112
294.162
294.211
294.259
294.307
294.353
294.399
294.446
294.492
294.538
294.584
294.629
294.674
294.718
294.762
294.806
294.85
294.893
294.935
294.977
295.018
295.058
295.097
295.132
276
276
276
276
276
276
276
276
276
276
276
276
276
276
276
276
276.001
276.001
276.001
276.002
276.003
276.004
276.005
276.007
276.009
276.012
276.016
276.021
276.027
276.034
276.043
276.053
276.066
276.081
276.099
276.12
276.145
276.173
276.206
276.244
276.286
276.335
276.389
276.45
276.516
276.59
276.67
276.757
276.851
276.951
277.057
277.17
277.288
277.411
277.54
277.674
277.813
277.956
278.103
278.255
278.411
278.57
278.734
278.9
279.071
279.245
279.423
279.605
279.791
279.98
280.173
280.369
280.568
280.77
280.976
281.184
281.393
281.605
281.819
282.033
282.249
282.466
282.682
282.899
283.115
283.33
283.545
283.759
283.97
284.181
284.39
284.597
284.801
285.004
285.204
285.402
285.598
285.791
285.982
286.17
286.355
286.538
286.718
286.895
287.07
287.241
287.411
287.577
287.741
287.902
288.06
288.216
288.369
288.52
288.668
288.813
288.956
289.096
289.233
289.368
289.501
289.631
289.759
289.884
290.008
290.129
290.248
290.365
290.479
290.592
290.702
290.81
290.917
291.021
291.123
291.224
291.322
291.419
291.514
291.608
291.699
291.789
291.878
291.964
292.05
292.133
292.216
292.297
292.376
292.454
292.531
292.606
292.68
292.753
292.825
292.895
292.964
293.032
293.098
293.163
293.227
293.29
293.352
293.412
293.472
293.53
293.588
293.645
293.7
293.755
293.81
293.863
293.916
293.967
294.018
294.068
294.118
294.167
294.216
294.264
294.312
294.359
294.405
294.451
294.497
294.543
294.589
294.634
294.678
294.723
294.767
294.811
294.854
294.897
294.94
294.981
295.022
295.062
295.101
295.136
276
276
276
276
276
276
276
276
276
276
276
276
276
276
276.001
276.001
276.001
276.002
276.003
276.004
276.005
276.008
276.01
276.013
276.018
276.023
276.03
276.038
276.047
276.059
276.073
276.09
276.11
276.133
276.16
276.191
276.227
276.268
276.314
276.366
276.424
276.488
276.559
276.636
276.72
276.81
276.906
277.009
277.117
277.231
277.35
277.474
277.602
277.735
277.872
278.012
278.156
278.304
278.454
278.607
278.764
278.923
279.084
279.249
279.416
279.586
279.758
279.935
280.113
280.295
280.48
280.667
280.858
281.051
281.247
281.446
281.645
281.848
282.052
282.257
282.464
282.672
282.879
283.087
283.295
283.502
283.709
283.916
284.121
284.324
284.526
284.727
284.926
285.123
285.318
285.511
285.701
285.89
286.076
286.26
286.441
286.62
286.796
286.97
287.141
287.309
287.476
287.639
287.8
287.959
288.115
288.268
288.419
288.567
288.713
288.857
288.997
289.136
289.271
289.405
289.536
289.665
289.791
289.915
290.037
290.157
290.275
290.391
290.505
290.616
290.726
290.833
290.938
291.042
291.143
291.243
291.341
291.437
291.532
291.624
291.716
291.805
291.893
291.979
292.064
292.147
292.229
292.309
292.388
292.466
292.542
292.617
292.691
292.764
292.835
292.905
292.974
293.041
293.107
293.172
293.236
293.298
293.36
293.42
293.479
293.538
293.595
293.652
293.707
293.762
293.816
293.87
293.922
293.974
294.024
294.074
294.124
294.173
294.222
294.27
294.317
294.364
294.41
294.456
294.502
294.548
294.594
294.639
294.683
294.728
294.772
294.816
294.859
294.902
294.944
294.986
295.026
295.066
295.105
295.14
276
276
276
276
276
276
276
276
276
276
276
276
276.001
276.001
276.001
276.002
276.003
276.004
276.006
276.008
276.011
276.015
276.02
276.026
276.033
276.042
276.053
276.067
276.083
276.101
276.124
276.15
276.18
276.215
276.255
276.3
276.35
276.407
276.47
276.539
276.615
276.697
276.785
276.88
276.98
277.086
277.198
277.314
277.435
277.561
277.69
277.823
277.96
278.099
278.242
278.386
278.534
278.683
278.834
278.987
279.143
279.299
279.458
279.619
279.781
279.946
280.113
280.282
280.454
280.628
280.804
280.983
281.164
281.348
281.534
281.723
281.913
282.106
282.3
282.496
282.693
282.89
283.089
283.288
283.487
283.686
283.885
284.084
284.281
284.478
284.673
284.867
285.059
285.25
285.439
285.627
285.812
285.996
286.177
286.356
286.533
286.708
286.88
287.05
287.218
287.383
287.546
287.706
287.864
288.02
288.173
288.324
288.473
288.619
288.762
288.903
289.042
289.179
289.313
289.444
289.574
289.701
289.826
289.949
290.069
290.188
290.305
290.419
290.532
290.642
290.751
290.857
290.962
291.064
291.165
291.264
291.361
291.457
291.55
291.642
291.733
291.822
291.909
291.995
292.079
292.162
292.243
292.323
292.402
292.479
292.555
292.629
292.703
292.775
292.846
292.916
292.984
293.051
293.117
293.181
293.245
293.307
293.368
293.428
293.488
293.546
293.603
293.659
293.715
293.769
293.823
293.877
293.929
293.98
294.031
294.081
294.13
294.179
294.228
294.276
294.323
294.37
294.416
294.462
294.508
294.553
294.599
294.644
294.688
294.733
294.777
294.82
294.864
294.907
294.949
294.99
295.031
295.071
295.11
295.144
276
276
276
276
276
276
276
276
276
276
276
276.001
276.001
276.002
276.003
276.004
276.006
276.009
276.012
276.016
276.022
276.029
276.037
276.048
276.061
276.076
276.095
276.116
276.142
276.172
276.206
276.246
276.291
276.341
276.398
276.461
276.53
276.605
276.688
276.776
276.87
276.97
277.076
277.187
277.303
277.423
277.547
277.675
277.806
277.941
278.078
278.217
278.359
278.502
278.647
278.793
278.942
279.091
279.241
279.392
279.545
279.698
279.853
280.008
280.166
280.324
280.484
280.646
280.81
280.975
281.143
281.313
281.485
281.659
281.835
282.014
282.194
282.377
282.561
282.746
282.934
283.122
283.311
283.501
283.691
283.881
284.072
284.262
284.452
284.64
284.829
285.016
285.201
285.386
285.569
285.751
285.93
286.109
286.285
286.459
286.632
286.802
286.97
287.136
287.3
287.461
287.621
287.778
287.933
288.085
288.236
288.384
288.53
288.673
288.814
288.953
289.09
289.225
289.357
289.487
289.614
289.74
289.863
289.984
290.104
290.221
290.336
290.449
290.561
290.67
290.778
290.883
290.987
291.088
291.188
291.286
291.383
291.477
291.57
291.661
291.751
291.839
291.926
292.011
292.095
292.177
292.258
292.337
292.415
292.492
292.568
292.642
292.715
292.787
292.857
292.927
292.995
293.061
293.127
293.191
293.254
293.316
293.377
293.437
293.496
293.554
293.611
293.667
293.722
293.777
293.831
293.884
293.936
293.987
294.037
294.087
294.137
294.186
294.234
294.282
294.329
294.375
294.422
294.467
294.513
294.559
294.604
294.649
294.693
294.738
294.781
294.825
294.868
294.911
294.953
294.995
295.035
295.075
295.114
295.148
276
276
276
276
276
276
276
276
276
276.001
276.001
276.002
276.003
276.004
276.007
276.009
276.013
276.018
276.025
276.033
276.043
276.055
276.071
276.089
276.111
276.136
276.166
276.201
276.241
276.286
276.338
276.396
276.459
276.53
276.607
276.691
276.78
276.876
276.978
277.085
277.197
277.314
277.435
277.56
277.688
277.819
277.953
278.09
278.228
278.368
278.509
278.652
278.796
278.94
279.085
279.231
279.378
279.525
279.672
279.82
279.967
280.116
280.265
280.415
280.566
280.718
280.87
281.024
281.179
281.336
281.495
281.655
281.817
281.982
282.148
282.317
282.487
282.659
282.833
283.008
283.185
283.364
283.543
283.723
283.905
284.086
284.268
284.449
284.631
284.812
284.993
285.173
285.351
285.529
285.706
285.882
286.056
286.228
286.399
286.568
286.736
286.901
287.065
287.227
287.387
287.544
287.7
287.854
288.005
288.155
288.302
288.448
288.591
288.732
288.87
289.007
289.141
289.274
289.403
289.531
289.657
289.781
289.903
290.022
290.14
290.256
290.37
290.482
290.592
290.7
290.806
290.911
291.013
291.114
291.213
291.31
291.405
291.499
291.591
291.682
291.771
291.858
291.944
292.029
292.112
292.193
292.274
292.353
292.43
292.506
292.581
292.655
292.728
292.799
292.869
292.938
293.006
293.072
293.138
293.201
293.264
293.326
293.387
293.446
293.505
293.563
293.619
293.675
293.73
293.785
293.838
293.891
293.943
293.994
294.044
294.094
294.143
294.192
294.24
294.288
294.335
294.381
294.427
294.473
294.519
294.564
294.609
294.654
294.699
294.743
294.786
294.83
294.873
294.916
294.958
294.999
295.04
295.08
295.118
295.153
276
276
276
276
276
276
276
276.001
276.001
276.002
276.003
276.005
276.007
276.01
276.015
276.021
276.028
276.038
276.05
276.065
276.083
276.105
276.132
276.162
276.198
276.24
276.287
276.34
276.4
276.467
276.54
276.62
276.707
276.8
276.899
277.004
277.115
277.23
277.35
277.473
277.6
277.731
277.863
277.999
278.135
278.274
278.414
278.555
278.696
278.839
278.981
279.124
279.267
279.41
279.553
279.696
279.839
279.982
280.124
280.266
280.409
280.551
280.694
280.837
280.98
281.124
281.268
281.414
281.561
281.708
281.857
282.009
282.161
282.315
282.471
282.629
282.789
282.951
283.115
283.28
283.447
283.615
283.785
283.956
284.127
284.3
284.473
284.646
284.819
284.992
285.165
285.337
285.509
285.68
285.85
286.019
286.187
286.354
286.519
286.683
286.846
287.007
287.166
287.323
287.479
287.632
287.784
287.934
288.082
288.229
288.373
288.515
288.655
288.793
288.929
289.063
289.195
289.325
289.453
289.579
289.703
289.825
289.945
290.063
290.179
290.293
290.405
290.516
290.625
290.731
290.837
290.94
291.041
291.141
291.239
291.335
291.429
291.522
291.614
291.703
291.791
291.878
291.963
292.047
292.13
292.211
292.29
292.369
292.446
292.522
292.596
292.669
292.741
292.812
292.882
292.951
293.018
293.084
293.149
293.212
293.275
293.336
293.397
293.456
293.514
293.572
293.628
293.684
293.739
293.793
293.846
293.899
293.951
294.001
294.052
294.101
294.15
294.199
294.247
294.294
294.341
294.388
294.433
294.479
294.525
294.57
294.615
294.66
294.704
294.748
294.792
294.835
294.878
294.921
294.963
295.004
295.044
295.084
295.123
295.157
276
276
276
276
276
276
276.001
276.002
276.003
276.005
276.007
276.011
276.017
276.024
276.033
276.045
276.06
276.078
276.101
276.128
276.16
276.198
276.242
276.292
276.349
276.412
276.483
276.561
276.646
276.739
276.837
276.942
277.052
277.168
277.288
277.413
277.541
277.672
277.806
277.942
278.08
278.219
278.359
278.5
278.641
278.783
278.924
279.066
279.208
279.349
279.489
279.629
279.769
279.908
280.047
280.184
280.322
280.459
280.595
280.73
280.866
281.001
281.136
281.271
281.406
281.542
281.678
281.814
281.952
282.09
282.229
282.371
282.513
282.657
282.803
282.951
283.101
283.252
283.405
283.56
283.717
283.875
284.035
284.196
284.359
284.522
284.686
284.85
285.015
285.18
285.345
285.509
285.674
285.838
286.001
286.163
286.325
286.486
286.645
286.804
286.961
287.117
287.271
287.424
287.575
287.725
287.873
288.019
288.163
288.306
288.447
288.586
288.723
288.858
288.991
289.123
289.252
289.38
289.506
289.629
289.751
289.871
289.989
290.105
290.22
290.332
290.443
290.552
290.659
290.765
290.868
290.97
291.071
291.169
291.266
291.361
291.455
291.547
291.637
291.726
291.813
291.899
291.984
292.067
292.149
292.229
292.308
292.386
292.462
292.537
292.611
292.684
292.756
292.826
292.895
292.964
293.03
293.096
293.16
293.224
293.286
293.347
293.407
293.466
293.524
293.581
293.638
293.693
293.748
293.801
293.855
293.907
293.958
294.009
294.059
294.109
294.157
294.206
294.254
294.301
294.348
294.394
294.44
294.485
294.531
294.576
294.621
294.665
294.709
294.753
294.797
294.84
294.883
294.926
294.968
295.009
295.049
295.089
295.127
295.162
276
276
276
276
276.001
276.001
276.003
276.005
276.008
276.012
276.019
276.027
276.039
276.054
276.073
276.096
276.125
276.159
276.2
276.247
276.302
276.364
276.434
276.511
276.596
276.689
276.789
276.896
277.008
277.127
277.25
277.378
277.51
277.644
277.781
277.92
278.061
278.203
278.345
278.488
278.632
278.774
278.917
279.059
279.2
279.341
279.481
279.62
279.757
279.894
280.03
280.164
280.298
280.431
280.563
280.694
280.824
280.953
281.082
281.209
281.337
281.463
281.59
281.717
281.843
281.969
282.096
282.223
282.351
282.48
282.61
282.741
282.873
283.007
283.143
283.28
283.42
283.561
283.704
283.848
283.995
284.143
284.293
284.444
284.597
284.751
284.905
285.061
285.217
285.374
285.531
285.687
285.845
286.001
286.158
286.314
286.469
286.623
286.777
286.93
287.082
287.232
287.381
287.53
287.676
287.821
287.965
288.107
288.248
288.387
288.524
288.66
288.794
288.926
289.057
289.185
289.312
289.437
289.561
289.682
289.802
289.919
290.035
290.15
290.262
290.373
290.482
290.59
290.696
290.8
290.902
291.003
291.102
291.199
291.295
291.389
291.481
291.572
291.662
291.75
291.836
291.921
292.005
292.087
292.168
292.248
292.326
292.403
292.479
292.554
292.627
292.7
292.771
292.841
292.909
292.977
293.043
293.109
293.173
293.236
293.297
293.358
293.418
293.477
293.534
293.591
293.647
293.702
293.757
293.81
293.863
293.915
293.967
294.017
294.067
294.116
294.165
294.213
294.261
294.308
294.354
294.4
294.446
294.492
294.537
294.582
294.627
294.671
294.715
294.759
294.802
294.846
294.888
294.931
294.973
295.014
295.054
295.093
295.132
295.166
276
276
276
276.001
276.002
276.004
276.008
276.013
276.021
276.032
276.047
276.066
276.091
276.121
276.159
276.204
276.257
276.318
276.388
276.466
276.554
276.649
276.753
276.865
276.983
277.107
277.237
277.371
277.509
277.65
277.793
277.938
278.085
278.232
278.379
278.526
278.672
278.818
278.963
279.107
279.25
279.391
279.531
279.669
279.806
279.942
280.076
280.209
280.34
280.469
280.598
280.725
280.85
280.975
281.098
281.221
281.342
281.463
281.582
281.7
281.819
281.936
282.054
282.171
282.288
282.405
282.522
282.639
282.757
282.876
282.996
283.117
283.24
283.364
283.489
283.616
283.745
283.875
284.008
284.142
284.279
284.417
284.557
284.699
284.842
284.986
285.132
285.279
285.426
285.574
285.723
285.872
286.021
286.17
286.32
286.469
286.618
286.766
286.914
287.061
287.207
287.352
287.496
287.639
287.781
287.922
288.061
288.2
288.336
288.472
288.605
288.738
288.868
288.998
289.125
289.251
289.375
289.497
289.618
289.737
289.854
289.97
290.084
290.197
290.307
290.416
290.524
290.63
290.734
290.836
290.937
291.037
291.134
291.23
291.325
291.418
291.509
291.599
291.688
291.775
291.86
291.944
292.027
292.109
292.189
292.268
292.346
292.422
292.497
292.571
292.644
292.716
292.786
292.856
292.924
292.991
293.057
293.122
293.186
293.248
293.309
293.37
293.429
293.488
293.545
293.602
293.657
293.712
293.766
293.82
293.872
293.924
293.975
294.025
294.075
294.124
294.173
294.221
294.268
294.315
294.361
294.407
294.453
294.498
294.543
294.588
294.633
294.677
294.721
294.765
294.808
294.851
294.894
294.936
294.978
295.019
295.059
295.098
295.136
295.171
276
276
276.001
276.003
276.007
276.013
276.023
276.037
276.057
276.083
276.116
276.158
276.209
276.27
276.342
276.423
276.515
276.617
276.728
276.848
276.976
277.111
277.251
277.396
277.545
277.697
277.85
278.004
278.159
278.315
278.469
278.623
278.775
278.925
279.074
279.221
279.366
279.509
279.651
279.79
279.926
280.061
280.193
280.324
280.453
280.58
280.705
280.828
280.95
281.07
281.189
281.306
281.422
281.537
281.65
281.762
281.873
281.984
282.093
282.202
282.31
282.418
282.525
282.632
282.739
282.847
282.954
283.061
283.17
283.279
283.388
283.499
283.611
283.725
283.84
283.956
284.075
284.196
284.318
284.442
284.568
284.697
284.827
284.959
285.092
285.227
285.364
285.502
285.64
285.78
285.921
286.062
286.203
286.345
286.487
286.629
286.772
286.913
287.055
287.196
287.336
287.476
287.615
287.753
287.89
288.027
288.162
288.295
288.428
288.56
288.69
288.818
288.946
289.072
289.196
289.319
289.44
289.56
289.678
289.795
289.91
290.023
290.135
290.245
290.354
290.461
290.567
290.671
290.774
290.875
290.974
291.072
291.168
291.263
291.356
291.448
291.538
291.627
291.715
291.801
291.885
291.969
292.051
292.131
292.211
292.289
292.366
292.442
292.516
292.589
292.662
292.733
292.803
292.871
292.939
293.006
293.071
293.136
293.199
293.261
293.322
293.382
293.441
293.499
293.556
293.612
293.668
293.722
293.776
293.829
293.882
293.933
293.984
294.034
294.083
294.132
294.181
294.228
294.276
294.322
294.368
294.414
294.46
294.505
294.55
294.595
294.639
294.683
294.727
294.77
294.814
294.857
294.899
294.941
294.983
295.024
295.064
295.103
295.141
295.175
276
276.002
276.005
276.012
276.025
276.043
276.07
276.107
276.155
276.216
276.289
276.376
276.475
276.588
276.712
276.847
276.991
277.143
277.301
277.464
277.631
277.799
277.968
278.137
278.305
278.471
278.636
278.799
278.958
279.116
279.27
279.421
279.57
279.715
279.857
279.997
280.134
280.267
280.398
280.527
280.653
280.777
280.898
281.017
281.134