/*--------------------------------*- C++ -*----------------------------------*\
| =========                 |                                                 |
| \\      /  F ield         | OpenFOAM: The Open Source CFD Toolbox           |
|  \\    /   O peration     | Version:  1.7.0                                 |
|   \\  /    A nd           | Web:      www.OpenFOAM.com                      |
|    \\/     M anipulation  |                                                 |
\*---------------------------------------------------------------------------*/
FoamFile
{
    version     2.0;
    format      ascii;
    class       volScalarField;
    location    "10000";
    object      epsilon;
}
// * * * * * * * * * * * * * * * * * * * * * * * * * * * * * * * * * * * * * //

dimensions      [0 2 -3 0 0 0 0];

internalField   nonuniform List<scalar> 
14800
(
849.736
849.959
850.129
850.27
850.393
850.502
850.602
850.693
850.777
850.857
850.933
851.006
851.078
851.151
851.224
851.299
851.377
851.46
851.548
851.644
851.75
851.868
852.002
852.157
852.338
852.555
852.816
853.137
853.535
854.034
854.663
855.461
856.476
857.768
859.413
861.504
864.156
867.511
871.743
877.064
883.731
892.06
902.43
915.304
931.236
950.897
975.084
1004.75
1041.02
1085.21
1138.83
1203.59
1281.42
1374.34
1484.44
1613.75
1764.08
1936.81
2132.6
2351.22
2591.23
2849.99
3123.65
3407.45
3696.1
3984.09
4266.04
4536.81
4791.6
5026.05
5236.34
5419.38
5572.97
5695.91
5787.92
5849.57
5882.07
5887.11
5866.67
5822.94
5758.21
5674.78
5574.98
5461.07
5335.25
5199.57
5055.94
4906.02
4751.28
4593
4432.3
4270.21
4107.73
3945.78
3785.21
3627
3471.79
3320.12
3172.41
3028.98
2890.04
2755.73
2626.13
2501.27
2381.14
2265.72
2154.97
2048.81
1947.17
1849.98
1757.12
1668.49
1583.97
1503.44
1426.76
1353.79
1284.39
1218.41
1155.71
1096.15
1039.59
985.901
934.945
886.6
840.744
797.261
756.036
716.959
679.925
644.83
611.577
580.069
550.217
521.934
495.137
469.749
445.696
422.908
401.321
380.872
361.502
343.157
325.784
309.332
293.754
279.004
265.038
251.813
239.289
227.428
216.194
205.55
195.464
185.904
176.84
168.246
160.096
152.364
145.028
138.067
131.459
125.187
119.231
113.575
108.202
103.097
98.2455
93.6337
89.2484
85.0772
81.1086
77.3316
73.736
70.3124
67.0521
63.9469
60.9894
58.1726
55.4899
52.9353
50.5026
48.1862
45.9804
43.8795
41.8779
39.9699
38.1498
36.4118
34.7502
33.1589
31.6321
30.1635
28.7473
27.3775
26.0486
24.7551
23.494
22.2605
21.064
19.9773
864.249
864.311
864.401
864.498
864.594
864.684
864.77
864.852
864.93
865.004
865.077
865.15
865.222
865.295
865.371
865.449
865.531
865.619
865.715
865.819
865.934
866.065
866.214
866.388
866.594
866.843
867.146
867.52
867.988
868.576
869.32
870.264
871.465
872.991
874.931
877.391
880.501
884.423
889.353
895.526
903.233
912.821
924.711
939.408
957.518
979.765
1007.01
1040.26
1080.7
1129.7
1188.81
1259.76
1344.45
1444.84
1562.88
1700.42
1859
2039.65
2242.71
2467.54
2712.39
2974.35
3249.44
3532.9
3819.51
4103.96
4381.1
4646.05
4894.28
5121.68
5324.68
5500.39
5646.8
5762.83
5848.3
5903.82
5930.66
5930.49
5905.31
5857.29
5788.68
5701.78
5598.86
5482.18
5353.89
5216.03
5070.45
4918.82
4762.57
4602.96
4441.08
4277.96
4114.58
3951.84
3790.56
3631.74
3475.98
3323.83
3175.7
3031.89
2892.62
2758.02
2628.16
2503.07
2382.74
2267.15
2156.23
2049.94
1948.18
1850.87
1757.92
1669.2
1584.61
1504.01
1427.27
1354.25
1284.8
1218.78
1156.05
1096.45
1039.86
986.145
935.165
886.798
840.923
797.423
756.182
717.092
680.045
644.94
611.676
580.16
550.299
522.009
495.205
469.811
445.753
422.961
401.369
380.915
361.542
343.194
325.817
309.363
293.783
279.031
265.063
251.835
239.31
227.447
216.211
205.566
195.479
185.917
176.853
168.258
160.106
152.374
145.037
138.075
131.467
125.194
119.237
113.581
108.207
103.102
98.2504
93.6383
89.2527
85.0812
81.1123
77.3351
73.7393
70.3156
67.0551
63.9497
60.9921
58.1752
55.4924
52.9376
50.5049
48.1884
45.9825
43.8816
41.8799
39.9718
38.1516
36.4136
34.7519
33.1607
31.6338
30.1653
28.7492
27.3794
26.0507
24.7573
23.4964
22.2631
21.0668
19.9803
895.745
895.866
895.953
896.027
896.095
896.16
896.226
896.292
896.36
896.428
896.498
896.569
896.644
896.721
896.803
896.889
896.982
897.084
897.195
897.318
897.458
897.619
897.806
898.029
898.298
898.627
899.034
899.543
900.185
900.996
902.027
903.336
904.998
907.107
909.776
913.144
917.379
922.687
929.314
937.557
947.773
960.391
975.92
994.966
1018.25
1046.6
1081.02
1122.64
1172.76
1232.84
1304.49
1389.43
1489.48
1606.39
1741.78
1897.03
2073.06
2270.23
2488.09
2725.27
2979.38
3247.06
3524.1
3805.77
4087.12
4363.26
4629.54
4881.62
5115.51
5327.64
5514.89
5674.83
5805.78
5906.95
5978.35
6020.72
6035.38
6024.04
5988.67
5931.42
5854.48
5760.1
5650.49
5527.84
5394.24
5251.66
5101.9
4946.57
4787.06
4624.56
4460.14
4294.79
4129.43
3964.97
3802.17
3642.01
3485.07
3331.87
3182.82
3038.21
2898.22
2762.99
2632.57
2506.98
2386.22
2270.24
2158.99
2052.39
1950.37
1852.83
1759.66
1670.76
1586.01
1505.26
1428.39
1355.25
1285.7
1219.59
1156.77
1097.11
1040.45
986.676
935.644
887.231
841.315
797.777
756.503
717.383
680.309
645.179
611.893
580.357
550.479
522.172
495.355
469.948
445.877
423.074
401.473
381.011
361.63
343.274
325.891
309.431
293.846
279.088
265.116
251.884
239.355
227.489
216.25
205.602
195.511
185.947
176.88
168.283
160.13
152.395
145.057
138.093
131.484
125.21
119.252
113.594
108.22
103.114
98.2613
93.6484
89.2621
85.09
81.1206
77.3428
73.7466
70.3224
67.0616
63.9559
60.998
58.1808
55.4978
52.9428
50.5099
48.1932
45.9871
43.8859
41.8841
39.9758
38.1556
36.4174
34.7557
33.1644
31.6375
30.169
28.753
27.3834
26.0549
24.7618
23.5013
22.2684
21.0726
19.9865
944.892
944.832
944.806
944.807
944.827
944.861
944.907
944.961
945.021
945.087
945.158
945.234
945.316
945.403
945.498
945.601
945.713
945.838
945.978
946.137
946.322
946.539
946.798
947.113
947.501
947.985
948.592
949.36
950.334
951.572
953.146
955.144
957.675
960.871
964.893
969.935
976.231
984.061
993.758
1005.72
1020.41
1038.4
1060.33
1086.97
1119.19
1158.02
1204.62
1260.29
1326.45
1404.65
1496.49
1603.56
1727.44
1869.42
2030.53
2211.34
2411.87
2631.46
2868.66
3121.18
3385.9
3658.98
3936.09
4212.69
4484.29
4746.62
4995.76
5228.13
5440.47
5629.88
5793.91
5930.69
6039.02
6118.47
6169.32
6192.5
6189.38
6161.72
6111.47
6040.71
5951.58
5846.24
5726.82
5595.41
5454.01
5304.49
5148.58
4987.79
4823.45
4656.68
4488.51
4319.84
4151.57
3984.53
3819.48
3657.32
3498.63
3343.89
3193.47
3047.65
2906.6
2770.42
2639.17
2512.85
2391.43
2274.88
2163.12
2056.07
1953.65
1855.76
1762.28
1673.1
1588.1
1507.14
1430.07
1356.76
1287.06
1220.81
1157.87
1098.09
1041.34
987.476
936.366
887.883
841.904
798.31
756.986
717.821
680.707
645.54
612.221
580.655
550.751
522.42
495.58
470.153
446.066
423.247
401.631
381.155
361.762
343.396
326.003
309.534
293.94
279.176
265.196
251.958
239.423
227.551
216.307
205.655
195.56
185.992
176.922
168.322
160.165
152.428
145.087
138.121
131.51
125.234
119.274
113.615
108.239
103.132
98.2777
93.6637
89.2763
85.1033
81.133
77.3545
73.7576
70.3328
67.0714
63.9653
61.0069
58.1893
55.5059
52.9506
50.5173
48.2003
45.9939
43.8925
41.8904
39.9819
38.1614
36.4231
34.7613
33.1699
31.643
30.1746
28.7587
27.3893
26.0611
24.7684
23.5083
22.276
21.0809
19.9955
1011.97
1011.84
1011.77
1011.75
1011.76
1011.79
1011.83
1011.89
1011.95
1012.03
1012.11
1012.2
1012.3
1012.4
1012.52
1012.65
1012.8
1012.96
1013.15
1013.37
1013.63
1013.95
1014.34
1014.82
1015.43
1016.19
1017.17
1018.41
1019.98
1021.99
1024.54
1027.77
1031.83
1036.93
1043.31
1051.24
1061.06
1073.16
1088.02
1106.18
1128.27
1155.03
1187.31
1226.07
1272.43
1327.58
1392.88
1469.75
1559.67
1664.14
1784.57
1922.16
2077.97
2252.5
2445.82
2657.46
2886.29
3130.52
3387.66
3654.56
3927.5
4202.39
4474.99
4741.18
4997.12
5239.35
5464.83
5670.82
5854.89
6014.94
6149.22
6256.5
6336.13
6388.09
6412.96
6411.85
6386.26
6337.93
6268.81
6180.92
6076.31
5957.03
5825.11
5682.52
5531.14
5372.75
5208.95
5041.17
4870.62
4698.37
4525.34
4352.39
4180.35
4009.99
3842.01
3677.28
3516.31
3359.56
3207.38
3059.99
2917.55
2780.15
2647.81
2520.53
2398.27
2280.97
2168.54
2060.91
1957.96
1859.61
1765.72
1676.19
1590.86
1509.61
1432.29
1358.75
1288.84
1222.41
1159.31
1099.39
1042.51
988.533
937.32
888.745
842.684
799.016
757.626
718.401
681.233
646.018
612.656
581.05
551.11
522.747
495.879
470.426
446.315
423.475
401.84
381.347
361.938
343.557
326.152
309.671
294.066
279.291
265.302
252.056
239.513
227.635
216.384
205.726
195.626
186.053
176.978
168.373
160.213
152.472
145.128
138.159
131.544
125.266
119.304
113.642
108.265
103.155
98.2997
93.6841
89.2954
85.1211
81.1497
77.3702
73.7723
70.3467
67.0846
63.9778
61.0188
58.2006
55.5167
52.9609
50.5272
48.2098
46.003
43.9012
41.8987
39.99
38.1692
36.4307
34.7686
33.1771
31.6502
30.1819
28.7661
27.397
26.0692
24.7771
23.5176
22.2861
21.0918
20.0071
1098.44
1098.41
1098.41
1098.43
1098.46
1098.51
1098.57
1098.64
1098.72
1098.81
1098.91
1099.02
1099.14
1099.28
1099.44
1099.61
1099.81
1100.04
1100.32
1100.64
1101.04
1101.54
1102.16
1102.95
1103.95
1105.24
1106.87
1108.97
1111.63
1115.01
1119.27
1124.64
1131.36
1139.74
1150.11
1162.9
1178.59
1197.75
1221.03
1249.17
1283.03
1323.58
1371.91
1429.2
1496.75
1575.94
1668.19
1774.91
1897.42
2036.88
2194.16
2369.7
2563.66
2775.44
3003.93
3247.47
3503.8
3770.11
4043.11
4319.08
4594.06
4864.03
5125.14
5373.89
5607.29
5822.76
6018.17
6191.66
6341.64
6466.75
6565.99
6638.75
6684.91
6704.88
6699.56
6670.24
6618.49
6546.11
6454.99
6347.09
6224.36
6088.74
5942.14
5786.39
5623.26
5454.39
5281.25
5105.17
4927.26
4748.48
4569.68
4391.62
4215.07
4040.74
3869.25
3701.43
3537.72
3378.56
3224.24
3074.97
2930.86
2791.98
2658.33
2529.89
2406.6
2288.39
2175.16
2066.81
1963.24
1864.32
1769.94
1679.96
1594.24
1512.64
1435.01
1361.19
1291.03
1224.38
1161.08
1100.99
1043.95
989.832
938.494
889.806
843.644
799.886
758.414
719.115
681.882
646.607
613.192
581.538
551.554
523.152
496.248
470.764
446.623
423.757
402.098
381.584
362.156
343.758
326.336
309.84
294.222
279.435
265.435
252.178
239.625
227.738
216.48
205.814
195.707
186.128
177.047
168.437
160.271
152.526
145.178
138.205
131.587
125.305
119.341
113.677
108.296
103.185
98.327
93.7096
89.3191
85.1433
81.1704
77.3896
73.7906
70.364
67.1009
63.9933
61.0335
58.2147
55.5301
52.9737
50.5395
48.2216
46.0143
43.912
41.9091
40
38.1789
36.4401
34.7778
33.1862
31.6592
30.1909
28.7754
27.4065
26.0792
24.7877
23.5291
22.2985
21.1052
20.0216
1206.94
1206.96
1206.97
1207
1207.04
1207.09
1207.16
1207.24
1207.34
1207.45
1207.58
1207.73
1207.89
1208.08
1208.29
1208.54
1208.83
1209.17
1209.59
1210.11
1210.77
1211.59
1212.65
1214
1215.73
1217.96
1220.81
1224.44
1229.04
1234.84
1242.13
1251.22
1262.5
1276.42
1293.5
1314.35
1339.67
1370.23
1406.94
1450.79
1502.89
1564.44
1636.74
1721.14
1819.02
1931.72
2060.49
2206.38
2370.17
2552.25
2752.54
2970.36
3204.67
3453.63
3714.98
3986.01
4263.63
4544.41
4824.67
5100.58
5368.34
5624.33
5865.38
6088.8
6292.47
6474.73
6634.3
6770.12
6881.34
6967.3
7027.64
7062.33
7071.74
7056.68
7018.29
6958.06
6877.64
6778.84
6663.53
6533.57
6390.83
6237.12
6074.22
5903.84
5727.6
5547.01
5363.43
5178.04
4991.85
4805.71
4620.38
4436.55
4254.89
4076.04
3900.57
3729.22
3562.4
3400.48
3243.72
3092.29
2946.26
2805.68
2670.53
2540.76
2416.28
2297.02
2182.86
2073.68
1969.38
1869.81
1774.85
1684.36
1598.19
1516.18
1438.19
1364.05
1293.6
1226.69
1163.17
1102.86
1045.64
991.359
939.874
891.054
844.774
800.909
759.342
719.957
682.646
647.302
613.824
582.114
552.079
523.631
496.685
471.163
446.988
424.091
402.404
381.865
362.414
343.995
326.554
310.041
294.407
279.605
265.592
252.323
239.759
227.861
216.593
205.918
195.803
186.217
177.129
168.513
160.341
152.591
145.238
138.261
131.639
125.353
119.385
113.717
108.334
103.22
98.3596
93.7399
89.3474
85.1697
81.1951
77.4128
73.8125
70.3846
67.1204
64.0118
61.0511
58.2314
55.5462
52.9891
50.5541
48.2356
46.0277
43.9249
41.9215
40.0119
38.1904
36.4513
34.7887
33.1969
31.6699
30.2017
28.7864
27.4179
26.0912
24.8004
23.5427
22.3132
21.1212
20.0387
1340.3
1340.17
1340.08
1340.04
1340.03
1340.06
1340.13
1340.22
1340.35
1340.49
1340.66
1340.86
1341.09
1341.35
1341.66
1342.03
1342.47
1343.02
1343.71
1344.59
1345.71
1347.16
1349.02
1351.43
1354.53
1358.5
1363.55
1369.95
1378.01
1388.1
1400.63
1416.13
1435.16
1458.39
1486.58
1520.59
1561.38
1610.01
1667.63
1735.48
1814.89
1907.18
2013.72
2135.77
2274.48
2430.8
2605.33
2798.32
3009.52
3238.15
3482.88
3741.74
4012.55
4292.38
4578.17
4866.63
5154.31
5437.69
5713.19
5977.31
6226.75
6458.63
6670.57
6860.77
7027.97
7171.34
7290.33
7384.54
7453.72
7497.8
7516.92
7511.53
7482.41
7430.68
7357.73
7265.18
7154.75
7028.25
6887.51
6734.31
6570.43
6397.56
6217.36
6031.39
5841.16
5648.02
5453.22
5257.81
5062.68
4868.59
4676.18
4486.08
4298.85
4115.08
3935.25
3760.04
3589.8
3424.86
3265.41
3111.6
2963.46
2821
2684.18
2552.92
2427.13
2306.7
2191.5
2081.41
1976.29
1876
1780.4
1689.33
1602.64
1520.18
1441.78
1367.28
1296.51
1229.31
1165.53
1104.99
1047.56
993.095
941.443
892.474
846.06
802.075
760.399
720.918
683.519
648.096
614.546
582.772
552.679
524.178
497.185
471.619
447.406
424.474
402.755
382.187
362.71
344.267
326.804
310.271
294.619
279.801
265.772
252.489
239.912
228.003
216.724
206.039
195.914
186.319
177.224
168.6
160.422
152.666
145.307
138.324
131.698
125.407
119.435
113.764
108.378
103.26
98.3973
93.775
89.3801
85.2002
81.2238
77.4397
73.8377
70.4084
67.143
64.0332
61.0715
58.2509
55.5647
53.0068
50.5711
48.2519
46.0433
43.9399
41.9359
40.0258
38.2038
36.4642
34.8014
33.2094
31.6823
30.2142
28.7991
27.4311
26.105
24.8151
23.5585
22.3303
21.1397
20.0586
1501.22
1500.84
1500.61
1500.49
1500.45
1500.48
1500.57
1500.69
1500.86
1501.07
1501.31
1501.59
1501.92
1502.31
1502.78
1503.37
1504.1
1505.04
1506.24
1507.8
1509.83
1512.46
1515.87
1520.27
1525.91
1533.09
1542.16
1553.54
1567.74
1585.31
1606.91
1633.29
1665.31
1703.91
1750.14
1805.16
1870.21
1946.57
2035.61
2138.66
2257.02
2391.88
2544.27
2714.94
2904.29
3112.32
3338.54
3581.93
3840.94
4113.47
4396.99
4688.49
4985
5283.07
5579.38
5870.63
6153.59
6425.11
6682.11
6921.76
7141.51
7339.3
7513.64
7663.58
7788.63
7888.64
7963.61
8013.66
8038.98
8039.9
8016.94
7970.91
7902.89
7814.24
7706.52
7581.44
7440.78
7286.32
7119.85
6943.08
6757.69
6565.27
6367.35
6165.39
5960.74
5754.65
5548.22
5342.39
5137.95
4935.54
4735.73
4539.02
4345.94
4156.98
3972.54
3793.23
3619.36
3451.19
3288.88
3132.51
2982.11
2837.64
2699.02
2566.17
2438.97
2317.28
2200.96
2089.87
1983.86
1882.79
1786.48
1694.79
1607.55
1524.59
1445.75
1370.85
1299.72
1232.21
1168.13
1107.35
1049.69
995.017
943.183
894.05
847.488
803.37
761.575
721.986
684.491
648.98
615.351
583.506
553.348
524.789
497.743
472.13
447.874
424.902
403.148
382.548
363.042
344.572
327.085
310.53
294.858
280.021
265.975
252.676
240.085
228.162
216.871
206.175
196.04
186.435
177.33
168.699
160.513
152.75
145.385
138.397
131.764
125.469
119.493
113.817
108.427
103.306
98.4399
93.8146
89.4171
85.2348
81.2561
77.4701
73.8663
70.4354
67.1685
64.0575
61.0946
58.2729
55.5858
53.0269
50.5904
48.2703
46.061
43.9569
41.9522
40.0415
38.2189
36.479
34.8158
33.2235
31.6964
30.2283
28.8136
27.4461
26.1207
24.8318
23.5764
22.3496
21.1607
20.0812
1692.8
1692.39
1692.19
1692.12
1692.14
1692.24
1692.39
1692.59
1692.84
1693.14
1693.49
1693.91
1694.42
1695.04
1695.82
1696.82
1698.11
1699.81
1702.03
1704.93
1708.73
1713.67
1720.04
1728.2
1738.57
1751.64
1767.97
1788.23
1813.18
1843.66
1880.65
1925.21
1978.53
2041.87
2116.57
2204.02
2305.6
2422.66
2556.44
2708
2878.16
3067.42
3275.89
3503.21
3748.54
4010.52
4287.26
4576.44
4875.29
5180.75
5489.52
5798.17
6103.57
6402.4
6691.68
6968.62
7230.63
7475.23
7700.12
7903.26
8082.94
8237.96
8367.63
8471.75
8550.45
8604.09
8633.07
8637.83
8618.84
8576.67
8512.1
8426.15
8320.1
8195.46
8053.9
7897.16
7727.03
7545.28
7353.64
7153.75
6947.2
6735.48
6520.01
6302.14
6083.11
5864.05
5645.94
5429.63
5215.77
5004.93
4797.58
4594.15
4395.08
4200.78
4011.6
3828.07
3650.44
3478.93
3313.65
3154.63
3001.87
2855.29
2714.8
2580.27
2451.57
2328.56
2211.06
2098.92
1991.98
1890.06
1793.01
1700.66
1612.82
1529.34
1450.02
1374.69
1303.19
1235.33
1170.96
1109.9
1052
997.105
945.073
895.763
849.042
804.781
762.857
723.152
685.551
649.946
616.232
584.308
554.081
525.458
498.355
472.69
448.387
425.373
403.58
382.945
363.407
344.908
327.395
310.815
295.121
280.263
266.199
252.883
240.275
228.338
217.034
206.325
196.178
186.563
177.449
168.808
160.614
152.843
145.471
138.476
131.838
125.538
119.556
113.876
108.482
103.357
98.4872
93.8587
89.4582
85.2732
81.2921
77.5039
73.8982
70.4655
67.197
64.0845
61.1203
58.2974
55.6092
53.0494
50.6119
48.2909
46.0808
43.9758
41.9704
40.059
38.2359
36.4954
34.8319
33.2394
31.7121
30.2442
28.8297
27.4628
26.1383
24.8505
23.5964
22.3713
21.1842
20.1064
1920.24
1920.11
1920.1
1920.16
1920.29
1920.48
1920.73
1921.03
1921.4
1921.84
1922.38
1923.04
1923.86
1924.93
1926.32
1928.16
1930.59
1933.82
1938.09
1943.69
1950.98
1960.38
1972.41
1987.64
2006.74
2030.5
2059.8
2095.62
2139.07
2191.37
2253.85
2327.91
2415.02
2516.68
2634.31
2769.26
2922.67
3095.42
3288.06
3500.7
3733.04
3984.23
4252.94
4537.34
4835.14
5143.64
5459.84
5780.52
6102.31
6421.84
6735.8
7041.03
7334.89
7614.73
7878.35
8123.8
8349.3
8553.22
8734.05
8890.55
9021.82
9127.4
9207.29
9261.87
9291.75
9297.61
9280.07
9239.76
9177.24
9093.24
8988.64
8864.56
8722.38
8563.66
8390.1
8203.46
8005.49
7797.92
7582.4
7360.52
7133.78
6903.58
6671.26
6438.04
6205.09
5973.43
5743.94
5517.35
5294.25
5075.1
4860.29
4650.18
4445.15
4245.53
4051.6
3863.82
3682.41
3507.52
3339.22
3177.52
3022.35
2873.62
2731.2
2594.96
2464.73
2340.35
2221.63
2108.41
2000.49
1897.71
1799.89
1706.85
1618.39
1534.35
1454.54
1378.77
1306.87
1238.66
1173.96
1112.61
1054.46
999.331
947.09
897.594
850.704
806.291
764.231
724.402
686.69
650.983
617.178
585.172
554.87
526.179
499.015
473.295
448.941
425.881
404.047
383.374
363.802
345.272
327.73
311.125
295.406
280.527
266.442
253.107
240.483
228.53
217.211
206.488
196.329
186.702
177.577
168.927
160.724
152.945
145.565
138.564
131.919
125.613
119.626
113.941
108.542
103.413
98.539
93.907
89.5032
85.3154
81.3316
77.5409
73.9331
70.4985
67.2283
64.1142
61.1486
58.3244
55.635
53.074
50.6355
48.3136
46.1025
43.9967
41.9905
40.0783
38.2546
36.5136
34.8496
33.2568
31.7295
30.2617
28.8476
27.4813
26.1576
24.871
23.6185
22.3951
21.2101
20.1342
2191.91
2191.63
2191.54
2191.57
2191.7
2191.93
2192.27
2192.7
2193.24
2193.92
2194.79
2195.92
2197.4
2199.39
2202.07
2205.66
2210.48
2216.88
2225.31
2236.29
2250.44
2268.46
2291.17
2319.51
2354.52
2397.35
2449.28
2511.7
2586.11
2674.06
2777.17
2897
3035.05
3192.61
3370.69
3569.92
3790.45
4031.91
4293.39
4573.4
4869.97
5180.63
5502.58
5832.7
6167.67
6504.11
6838.62
7167.9
7488.8
7798.39
8094.03
8373.38
8634.74
8876.41
9097.17
9295.95
9471.84
9623.94
9751.5
9853.94
9931.03
9982.93
10010.2
10013.5
9993.84
9952.06
9888.86
9804.89
9700.76
9577.16
9435.01
9275.43
9099.81
8909.68
8706.71
8492.61
8269.08
8037.77
7800.28
7558.11
7312.68
7065.31
6817.27
6569.7
6323.66
6080.1
5839.82
5603.46
5371.52
5144.39
4922.41
4705.85
4495.03
4290.23
4091.66
3899.73
3714.59
3536.37
3365.1
3200.72
3043.16
2892.28
2747.94
2609.98
2478.21
2352.45
2232.5
2118.18
2009.28
1905.62
1807.01
1713.26
1624.18
1539.57
1459.25
1383.02
1310.71
1242.13
1177.1
1115.46
1057.03
1001.67
949.212
899.52
852.455
807.884
765.681
725.723
687.894
652.082
618.181
586.088
555.707
526.946
499.717
473.938
449.531
426.424
404.546
383.833
364.224
345.661
328.09
311.456
295.712
280.81
266.703
253.349
240.706
228.736
217.401
206.664
196.492
186.852
177.716
169.055
160.843
153.055
145.667
138.658
132.007
125.694
119.701
114.011
108.606
103.473
98.5951
93.9592
89.552
85.361
81.3744
77.5811
73.971
70.5343
67.2622
64.1464
61.1793
58.3537
55.663
53.1009
50.6612
48.3382
46.1262
44.0194
42.0124
40.0994
38.275
36.5333
34.8689
33.2759
31.7484
30.2807
28.867
27.5014
26.1788
24.8935
23.6427
22.4212
21.2384
20.1646
2516.32
2515.44
2515.05
2514.96
2515.08
2515.39
2515.87
2516.54
2517.42
2518.6
2520.17
2522.31
2525.24
2529.24
2534.71
2542.08
2551.92
2564.88
2581.75
2603.4
2630.86
2665.25
2707.84
2759.99
2823.21
2899.07
2989.25
3095.44
3219.36
3362.63
3526.71
3712.79
3921.65
4153.57
4408.18
4684.49
4980.79
5294.78
5623.65
5964.17
6312.88
6666.17
7020.41
7372.08
7717.78
8054.38
8378.99
8689.04
8982.25
9256.69
9510.79
9743.28
9953.5
10140.8
10304.8
10445.2
10561.9
10654.5
10722.8
10766.9
10786.8
10783.3
10757.2
10709.5
10641.3
10553.5
10446.7
10321.6
10178.6
10018.4
9841.93
9650.12
9444.31
9225.98
8996.71
8758.1
8511.77
8259.3
8002.19
7741.86
7479.65
7216.83
6954.57
6693.97
6436.01
6181.56
5931.34
5685.95
5445.81
5211.25
4982.54
4759.92
4543.65
4333.93
4130.95
3935.04
3746.33
3564.91
3390.76
3223.8
3063.9
2910.93
2764.71
2625.06
2491.77
2364.65
2243.48
2128.07
2018.19
1913.65
1814.26
1719.8
1630.08
1544.9
1464.07
1387.39
1314.66
1245.71
1180.34
1118.4
1059.7
1004.09
951.411
901.52
854.275
809.542
767.191
727.101
689.151
653.23
619.23
587.048
556.586
527.751
500.455
474.615
450.153
426.995
405.072
384.318
364.671
346.073
328.47
311.808
296.037
281.11
266.98
253.605
240.943
228.955
217.604
206.851
196.665
187.012
177.864
169.192
160.97
153.172
145.776
138.759
132.1
125.78
119.781
114.085
108.676
103.537
98.6552
94.0153
89.6044
85.41
81.4203
77.6243
74.0117
70.5727
67.2986
64.1811
61.2123
58.3853
55.6932
53.1298
50.6889
48.3648
46.1517
44.044
42.036
40.1222
38.297
36.5547
34.8898
33.2965
31.7689
30.3014
28.8881
27.5232
26.2017
24.9178
23.6688
22.4494
21.269
20.1975
2903.36
2902.27
2901.96
2902.05
2902.41
2903.02
2903.91
2905.12
2906.77
2909.06
2912.26
2916.72
2922.92
2931.46
2943.05
2958.54
2978.93
3005.35
3039.09
3081.57
3134.35
3199.08
3277.53
3371.51
3482.86
3613.4
3764.84
3938.73
4136.36
4358.6
4605.83
4877.77
5173.4
5490.91
5827.68
6180.45
6545.42
6918.48
7295.43
7672.1
8044.59
8409.26
8762.86
9102.52
9425.77
9730.52
10015.1
10278
10518.2
10735
10927.9
11096.6
11241.5
11362.6
11460.4
11535.1
11586.9
11616.1
11622.6
11606.9
11569.5
11511.2
11433.1
11336.4
11222.1
11091
10943.8
10780.9
10602.6
10409.5
10202.3
9981.97
9749.65
9506.69
9254.55
8994.72
8728.7
8457.95
8183.88
7907.83
7631.07
7354.8
7080.13
6808.08
6539.61
6275.5
6016.45
5762.97
5515.45
5274.17
5039.36
4811.21
4589.93
4375.7
4168.63
3969.03
3776.98
3592.56
3415.7
3246.29
3084.18
2929.21
2781.19
2639.92
2505.17
2376.74
2254.39
2137.91
2027.08
1921.69
1821.52
1726.37
1636.02
1550.28
1468.94
1391.8
1318.66
1249.34
1183.64
1121.39
1062.42
1006.56
953.66
903.569
856.142
811.245
768.746
728.52
690.448
654.416
620.315
588.042
557.496
528.586
501.221
475.319
450.8
427.591
405.621
384.823
365.138
346.504
328.868
312.176
296.377
281.424
267.271
253.874
241.192
229.186
217.817
207.049
196.847
187.181
178.021
169.337
161.104
153.296
145.891
138.865
132.199
125.872
119.866
114.164
108.749
103.606
98.719
94.0748
89.66
85.462
81.4691
77.6702
74.055
70.6137
67.3375
64.218
61.2476
58.419
55.7254
53.1607
50.7186
48.3933
46.179
44.0702
42.0613
40.1466
38.3206
36.5777
34.9122
33.3186
31.7909
30.3236
28.9107
27.5467
26.2263
24.944
23.6969
22.4798
21.3019
20.2329
3370
3369.67
3370.05
3370.71
3371.6
3372.85
3374.58
3377.01
3380.46
3385.41
3392.47
3402.4
3416.16
3434.88
3459.88
3492.64
3534.85
3588.31
3654.99
3736.94
3836.24
3955
4095.22
4258.73
4447.12
4661.61
4902.99
5171.48
5466.67
5787.38
6131.64
6496.63
6878.73
7273.65
7676.64
8082.7
8486.93
8884.68
9271.77
9644.62
10000.2
10336.1
10650.5
10941.8
11209.1
11451.8
11669.3
11861.6
12028.8
12170.9
12288.6
12382.4
12453.1
12501.5
12528.3
12534.2
12519.6
12484.8
12430.2
12356.2
12263.5
12153.1
12026.3
11884
11727.3
11556.9
11373.1
11176.4
10966.9
10744.9
10511.1
10266.2
10011.3
9747.48
9476.11
9198.52
8916.08
8630.12
8341.96
8052.84
7763.95
7476.44
7191.34
6909.66
6632.27
6359.94
6093.31
5832.87
5578.95
5331.81
5091.65
4858.62
4632.9
4414.64
4203.91
4000.98
3805.91
3618.76
3439.43
3267.76
3103.61
2946.79
2797.09
2654.29
2518.17
2388.5
2265.03
2147.54
2035.8
1929.58
1828.67
1732.85
1641.91
1555.62
1473.79
1396.2
1322.66
1252.97
1186.94
1124.39
1065.15
1009.05
955.933
905.642
858.035
812.973
770.326
729.965
691.771
655.627
621.425
589.059
558.43
529.443
502.009
476.044
451.467
428.205
406.187
385.347
365.621
346.951
329.281
312.558
296.731
281.752
267.575
254.155
241.452
229.427
218.04
207.255
197.038
187.358
178.184
169.488
161.244
153.426
146.011
138.977
132.303
125.969
119.956
114.248
108.827
103.678
98.7862
94.1375
89.7186
85.5169
81.5207
77.7188
74.1008
70.6571
67.3786
64.2572
61.2849
58.4547
55.7596
53.1935
50.75
48.4235
46.2081
44.0982
42.0882
40.1725
38.3457
36.6021
34.9361
33.3421
31.8144
30.3472
28.9349
27.5717
26.2525
24.9719
23.7268
22.5122
21.3371
20.2707
3946.41
3946.14
3946.88
3947.98
3949.57
3951.97
3955.58
3960.96
3968.91
3980.47
3996.92
4019.82
4050.93
4092.29
4146.12
4214.81
4300.86
4406.82
4535.21
4688.39
4868.48
5077.18
5315.67
5584.48
5883.37
6211.32
6566.48
6946.22
7347.12
7765.06
8195.33
8632.73
9071.77
9506.94
9932.91
10344.8
10738.5
11110.6
11458.4
11780.2
12074.8
12341.7
12580.5
12791.6
12975.4
13132.3
13263.2
13368.8
13450
13507.6
13542.7
13556.4
13549.8
13524
13479.7
13417.8
13338.6
13242.6
13130
13001.5
12857.7
12699.7
12528.6
12345.4
12150.9
11945.7
11730
11504
11267.7
11021.2
10765
10499.7
10226.2
9945.41
9658.53
9366.71
9071.2
8773.19
8473.87
8174.42
7875.94
7579.5
7286.11
6996.71
6712.14
6433.16
6160.35
5894.17
5634.96
5382.94
5138.29
4901.15
4671.66
4449.95
4236.06
4030.23
3832.53
3642.98
3461.46
3287.79
3121.81
2963.31
2812.09
2667.91
2530.53
2399.71
2275.21
2156.79
2044.2
1937.21
1835.61
1739.16
1647.64
1560.84
1478.53
1400.52
1326.59
1256.55
1190.21
1127.37
1067.87
1011.53
958.199
907.713
859.929
814.707
771.913
731.419
693.104
656.85
622.548
590.09
559.377
530.314
502.811
476.782
452.148
428.834
406.767
385.883
366.117
347.41
329.706
312.952
297.096
282.09
267.888
254.445
241.721
229.676
218.271
207.469
197.236
187.541
178.354
169.646
161.39
153.562
146.137
139.094
132.411
126.069
120.049
114.335
108.908
103.753
98.8565
94.2032
89.78
85.5745
81.5747
77.7697
74.1488
70.7026
67.4219
64.2983
61.3242
58.4923
55.7957
53.228
50.7832
48.4554
46.2388
44.1277
42.1166
40.2
38.3723
36.628
34.9614
33.3671
31.8393
30.3723
28.9605
27.5982
26.2804
25.0015
23.7586
22.5466
21.3745
20.3108
4671.76
4670.97
4671.96
4673.88
4677.19
4682.74
4691.51
4704.88
4724.63
4752.94
4792.31
4845.57
4915.78
5006.13
5119.89
5260.22
5430.08
5632.02
5868.02
6139.3
6446.1
6787.6
7161.79
7565.54
7994.71
8444.37
8909.04
9382.93
9860.15
10334.9
10801.4
11254.4
11689
12100.7
12485.8
12841.7
13166.4
13458.8
13718.5
13946
14142
14307.5
14443.9
14552.5
14634.8
14692.1
14725.7
14737.1
14727.3
14697.7
14649.4
14583.7
14501.7
14404.6
14293
14167.6
14028.7
13876.6
13711.6
13534.1
13344.9
13144.9
12935.1
12716.4
12489.5
12254.7
12012.1
11761.6
11503.1
11236.6
10962.4
10680.9
10392.7
10098.8
9800.09
9497.56
9192.29
8885.36
8577.84
8270.81
7965.3
7662.31
7362.8
7067.67
6777.75
6493.74
6216.23
5945.66
5682.34
5426.51
5178.31
4937.89
4705.37
4480.88
4264.4
4056.18
3856.28
3664.73
3481.36
3305.98
3138.42
2978.47
2825.91
2680.51
2542.02
2410.19
2284.76
2165.49
2052.13
1944.45
1842.21
1745.18
1653.14
1565.85
1483.11
1404.7
1330.41
1260.04
1193.39
1130.28
1070.53
1013.97
960.43
909.757
861.802
816.425
773.489
732.867
694.433
658.072
623.671
591.123
560.328
531.19
503.618
477.527
452.836
429.469
407.355
386.427
366.621
347.877
330.139
313.353
297.468
282.436
268.209
254.743
241.997
229.932
218.508
207.689
197.44
187.73
178.529
169.809
161.541
153.702
146.267
139.214
132.523
126.173
120.146
114.425
108.992
103.832
98.9296
94.2715
89.8439
85.6344
81.6311
77.8227
74.199
70.7501
67.467
64.3414
61.3653
58.5316
55.8334
53.2643
50.8181
48.4889
46.271
44.1587
42.1465
40.2289
38.4003
36.6552
34.9881
33.3934
31.8655
30.3987
28.9875
27.6262
26.3098
25.0328
23.7923
22.583
21.414
20.3533
5606.94
5605.66
5608.35
5613.72
5623.09
5638.5
5662.36
5697.79
5748.51
5818.64
5912.55
6034.69
6189.32
6380.33
6610.98
6883.6
7199.39
7558.16
7958.16
8396.02
8866.77
9364.08
9880.54
10408.2
10939
11465.2
11980.1
12477.6
12952.7
13401.2
13819.8
14205.7
14556.9
14871.9
15149.8
15390.6
15594.9
15763.6
15898.5
16001.5
16074.7
16120.1
16139.9
16135.9
16110.1
16064
15999.1
15916.9
15818.6
15705.4
15578.4
15438.9
15287.7
15125.8
14953.8
14771.9
14580.4
14379.3
14168.8
13949.3
13721.4
13486
13243.8
12995.7
12742
12483.1
12218.7
11948.7
11672.7
11390.8
11102.8
10809.2
10510.4
10207.1
9900.09
9590.23
9278.43
8965.63
8652.8
8340.89
8030.87
7723.68
7420.23
7121.38
6827.94
6540.59
6259.9
5986.31
5720.14
5461.61
5210.87
4968.07
4733.33
4506.76
4288.33
4078.27
3876.66
3683.55
3498.7
3321.94
3153.09
2991.95
2838.28
2691.86
2552.42
2419.72
2293.49
2173.49
2059.46
1951.16
1848.36
1750.81
1658.3
1570.58
1487.44
1408.67
1334.04
1263.37
1196.45
1133.08
1073.1
1016.33
962.595
911.746
863.63
818.106
775.035
734.289
695.743
659.278
624.782
592.148
561.274
532.063
504.424
478.272
453.525
430.107
407.946
386.975
367.129
348.349
330.577
313.76
297.846
282.787
268.535
255.045
242.278
230.193
218.75
207.913
197.649
187.924
178.709
169.975
161.696
153.845
146.4
139.338
132.638
126.281
120.246
114.518
109.078
103.912
99.005
94.342
89.91
85.6964
81.6894
77.8777
74.251
70.7994
67.5139
64.3861
61.4081
58.5726
55.8727
53.302
50.8544
48.5238
46.3046
44.1912
42.1778
40.2591
38.4296
36.6838
35.0161
33.421
31.8931
30.4265
29.0159
27.6556
26.3407
25.0657
23.8276
22.6212
21.4555
20.398
6853.98
6858.18
6870.24
6888.95
6918.32
6963.47
7030.12
7124.69
7253.85
7424.02
7640.92
7909.07
8231.39
8608.87
9040.22
9521.83
10047.7
10609.8
11198.4
11802.7
12411.4
13013.4
13598.5
14157.9
14684.8
15174
15622.5
16028.6
16391.7
16712.1
16990.5
17227.8
17425
17583.4
17704.4
17789.9
17841.8
17862.5
17854.7
17820.7
17763.3
17684.6
17587
17472.3
17342.2
17198.1
17041.5
16873.4
16694.9
16506.9
16310.4
16106.3
15895.3
15677.8
15454.3
15224.8
14989.3
14747.6
14499.7
14246
13986.8
13722.9
13455
13183.7
12909.2
12631.7
12350.8
12066.2
11777.5
11484.5
11187
10885.2
10579.6
10270.5
9958.64
9644.69
9329.43
9013.68
8698.28
8384.1
8072.01
7762.9
7457.64
7157.05
6861.91
6572.89
6290.55
6015.35
5747.6
5487.52
5235.29
4991.05