/*--------------------------------*- C++ -*----------------------------------*\
| =========                 |                                                 |
| \\      /  F ield         | OpenFOAM: The Open Source CFD Toolbox           |
|  \\    /   O peration     | Version:  1.7.0                                 |
|   \\  /    A nd           | Web:      www.OpenFOAM.com                      |
|    \\/     M anipulation  |                                                 |
\*---------------------------------------------------------------------------*/
FoamFile
{
    version     2.0;
    format      ascii;
    class       volScalarField;
    location    "10000";
    object      k;
}
// * * * * * * * * * * * * * * * * * * * * * * * * * * * * * * * * * * * * * //

dimensions      [0 2 -2 0 0 0 0];

internalField   nonuniform List<scalar> 
14800
(
2.79525
2.79547
2.79562
2.79574
2.79583
2.79591
2.79598
2.79605
2.79612
2.7962
2.79627
2.79635
2.79645
2.79655
2.79667
2.7968
2.79695
2.79712
2.79732
2.79755
2.79781
2.79812
2.79848
2.79891
2.79943
2.80006
2.80083
2.80177
2.80295
2.80443
2.80628
2.80861
2.81153
2.81522
2.81985
2.82565
2.83292
2.84197
2.85321
2.86713
2.8843
2.9054
2.93123
2.96276
3.00111
3.04761
3.10381
3.17149
3.25272
3.34984
3.46546
3.60239
3.76382
3.95279
4.17235
4.42529
4.71392
5.0398
5.40347
5.80413
6.23937
6.70501
7.19523
7.70296
8.2205
8.74027
9.25538
9.75981
10.2483
10.7162
11.1589
11.5721
11.9518
12.2949
12.5992
12.8636
13.088
13.2734
13.4209
13.532
13.6083
13.6517
13.664
13.6477
13.6057
13.541
13.4571
13.3567
13.2422
13.115
12.9757
12.8243
12.6605
12.4842
12.296
12.096
11.8862
11.6687
11.4455
11.2189
10.9907
10.7625
10.5354
10.3098
10.0862
9.86444
9.64452
9.4264
9.21009
8.99575
8.78358
8.57385
8.36685
8.16288
7.96223
7.76516
7.57189
7.38258
7.19734
7.0162
6.83912
6.66604
6.49686
6.33149
6.16984
6.01186
5.85751
5.70674
5.55954
5.41589
5.27574
5.13906
5.0058
4.87591
4.74933
4.62601
4.50589
4.3889
4.275
4.16411
4.05617
3.95113
3.84892
3.74947
3.65273
3.55863
3.46711
3.3781
3.29155
3.20739
3.12558
3.04602
2.96867
2.89345
2.82031
2.74918
2.68001
2.61273
2.54729
2.48364
2.42171
2.36146
2.30283
2.24579
2.19027
2.13625
2.08367
2.0325
1.98269
1.93422
1.88703
1.84111
1.79642
1.75292
1.71059
1.66939
1.6293
1.59029
1.55231
1.51536
1.4794
1.44439
1.41032
1.37716
1.34488
1.31346
1.28287
1.2531
1.22412
1.19593
1.1685
1.14183
1.11591
1.09073
1.0663
1.0426
1.01967
0.997467
0.976287
0.95752
2.81429
2.8143
2.81434
2.81441
2.81447
2.81453
2.8146
2.81466
2.81473
2.81481
2.81489
2.81498
2.81508
2.8152
2.81533
2.81547
2.81564
2.81583
2.81605
2.8163
2.81659
2.81693
2.81733
2.81781
2.81839
2.81909
2.81996
2.82103
2.82237
2.82404
2.82614
2.82877
2.83209
2.83626
2.84148
2.84802
2.85617
2.8663
2.87885
2.89433
2.91336
2.93666
2.9651
2.99968
3.0416
3.09222
3.15317
3.22628
3.31365
3.41766
3.54092
3.68616
3.85651
4.05484
4.28396
4.54637
4.84401
5.17806
5.54867
5.95469
6.39343
6.86056
7.35024
7.85549
8.36888
8.88312
9.39165
9.88874
10.3694
10.8292
11.2637
11.6688
12.0407
12.3763
12.6734
12.9311
13.1494
13.3291
13.4714
13.5777
13.6497
13.6891
13.6978
13.6783
13.6333
13.5661
13.4797
13.3771
13.2607
13.1317
12.9908
12.8379
12.6728
12.4954
12.3062
12.1052
11.8946
11.6763
11.4525
11.2252
10.9965
10.7678
10.5402
10.3143
10.0902
9.86815
9.64791
9.42949
9.21293
8.99835
8.78597
8.57604
8.36887
8.16474
7.96394
7.76674
7.57334
7.38392
7.19858
7.01734
6.84017
6.66701
6.49775
6.33231
6.1706
6.01257
5.85816
5.70735
5.56011
5.41641
5.27622
5.13951
5.00622
4.8763
4.7497
4.62635
4.50621
4.3892
4.27528
4.16437
4.05642
3.95136
3.84913
3.74967
3.65292
3.55881
3.46728
3.37826
3.2917
3.20753
3.12571
3.04614
2.96878
2.89356
2.82041
2.74928
2.6801
2.61282
2.54738
2.48371
2.42178
2.36153
2.3029
2.24585
2.19033
2.1363
2.08372
2.03255
1.98274
1.93426
1.88708
1.84115
1.79646
1.75296
1.71063
1.66943
1.62933
1.59031
1.55234
1.51539
1.47942
1.44441
1.41034
1.37718
1.3449
1.31347
1.28289
1.25311
1.22414
1.19594
1.16851
1.14184
1.11592
1.09074
1.0663
1.0426
1.01967
0.997467
0.976285
0.957516
2.8552
2.85525
2.85528
2.8553
2.85533
2.85537
2.85543
2.85549
2.85556
2.85565
2.85575
2.85586
2.85598
2.85612
2.85628
2.85646
2.85666
2.85689
2.85716
2.85747
2.85782
2.85824
2.85873
2.85933
2.86006
2.86095
2.86205
2.86342
2.86513
2.86728
2.86997
2.87336
2.87761
2.88293
2.88957
2.89784
2.9081
2.92078
2.93639
2.95553
2.9789
3.00734
3.04181
3.08344
3.13353
3.1936
3.26537
3.35077
3.452
3.57143
3.71163
3.87519
4.06502
4.28354
4.53305
4.81537
5.13168
5.48239
5.86685
6.28325
6.72838
7.19765
7.68522
8.18442
8.6883
9.19026
9.68438
10.1656
10.6294
11.0719
11.4889
11.8768
12.2319
12.5514
12.8333
13.0767
13.2818
13.4493
13.5804
13.6765
13.7391
13.77
13.7711
13.7445
13.6933
13.6203
13.5287
13.4215
13.3008
13.168
13.0236
12.8676
12.6996
12.5197
12.3282
12.1253
11.9128
11.6929
11.4676
11.2391
11.0092
10.7794
10.5508
10.3239
10.0991
9.87622
9.65529
9.43624
9.21911
9.00402
8.79117
8.58082
8.37327
8.16879
7.96767
7.77017
7.57651
7.38685
7.20127
7.01982
6.84246
6.66912
6.4997
6.33411
6.17227
6.01411
5.85959
5.70867
5.56134
5.41755
5.27729
5.1405
5.00714
4.87716
4.7505
4.6271
4.50691
4.38986
4.27589
4.16494
4.05695
3.95186
3.8496
3.75012
3.65334
3.5592
3.46765
3.37861
3.29202
3.20784
3.12599
3.04641
2.96904
2.8938
2.82064
2.74949
2.6803
2.61301
2.54755
2.48388
2.42194
2.36168
2.30304
2.24598
2.19046
2.13642
2.08384
2.03265
1.98284
1.93436
1.88717
1.84124
1.79654
1.75304
1.7107
1.6695
1.6294
1.59038
1.5524
1.51544
1.47947
1.44446
1.41039
1.37722
1.34494
1.31351
1.28292
1.25314
1.22417
1.19597
1.16854
1.14186
1.11593
1.09075
1.06631
1.04261
1.01968
0.997467
0.976281
0.957509
2.91755
2.91737
2.91726
2.91721
2.9172
2.91723
2.91728
2.91735
2.91744
2.91755
2.91768
2.91782
2.91798
2.91817
2.91837
2.91861
2.91887
2.91917
2.91952
2.91991
2.92038
2.92093
2.9216
2.9224
2.92339
2.92461
2.92614
2.92804
2.93043
2.93343
2.93719
2.94191
2.9478
2.95514
2.96426
2.97554
2.98944
3.00649
3.02732
3.05267
3.08337
3.1204
3.16491
3.21818
3.2817
3.35712
3.44633
3.55135
3.67442
3.81788
3.98412
4.17538
4.39412
4.64206
4.92061
5.23061
5.5722
5.94473
6.34661
6.77524
7.22688
7.6967
8.17902
8.66764
9.15638
9.63954
10.1121
10.5699
11.0092
11.4264
11.8182
12.181
12.5118
12.808
13.0679
13.2907
13.4765
13.6262
13.741
13.8222
13.8712
13.8897
13.8794
13.8426
13.782
13.7007
13.6015
13.4874
13.3605
13.222
13.0725
12.9118
12.7397
12.556
12.3611
12.1552
11.9401
11.7177
11.4902
11.2598
11.0281
10.7967
10.5666
10.3384
10.1123
9.88831
9.66636
9.44637
9.22839
9.01253
8.79899
8.58801
8.37987
8.17487
7.97328
7.77534
7.58128
7.39124
7.20533
7.02356
6.84591
6.6723
6.50264
6.33683
6.17478
6.01643
5.86174
5.71067
5.56319
5.41928
5.27889
5.14199
5.00853
4.87846
4.75171
4.62823
4.50796
4.39084
4.27681
4.16581
4.05776
3.95262
3.85031
3.75078
3.65396
3.55979
3.4682
3.37913
3.29251
3.2083
3.12643
3.04682
2.96942
2.89416
2.82098
2.74981
2.68061
2.61329
2.54782
2.48414
2.42218
2.3619
2.30325
2.24618
2.19065
2.13661
2.08401
2.03282
1.983
1.9345
1.88731
1.84137
1.79667
1.75316
1.71081
1.6696
1.6295
1.59047
1.55249
1.51553
1.47955
1.44454
1.41046
1.37729
1.345
1.31357
1.28297
1.25319
1.22421
1.19601
1.16857
1.14189
1.11596
1.09077
1.06633
1.04262
1.01968
0.997468
0.976277
0.957498
3.00013
2.99987
2.99972
2.99966
2.99965
2.99969
2.99977
2.99987
3
3.00015
3.00033
3.00052
3.00075
3.00099
3.00127
3.00159
3.00194
3.00234
3.00281
3.00335
3.004
3.00477
3.00571
3.00686
3.0083
3.01008
3.01232
3.01512
3.01865
3.02306
3.02859
3.03549
3.04406
3.05469
3.06779
3.08388
3.10355
3.12748
3.15646
3.19141
3.23335
3.28347
3.34309
3.41372
3.49701
3.59479
3.70902
3.84178
3.9952
4.17139
4.37234
4.59966
4.85504
5.13918
5.45234
5.79419
6.16369
6.55913
6.97804
7.41714
7.87232
8.33872
8.81097
9.28357
9.75127
10.2094
10.6541
11.082
11.4901
11.8757
12.2358
12.5674
12.8678
13.1348
13.367
13.5638
13.7255
13.8529
13.9471
14.0093
14.0411
14.0437
14.0191
13.9692
13.8968
13.8047
13.6958
13.5729
13.438
13.2922
13.1361
12.9695
12.7919
12.6033
12.4041
12.1942
11.9756
11.7501
11.5198
11.2868
11.0529
10.8194
10.5874
10.3574
10.1297
9.9042
9.68089
9.45969
9.2406
9.02373
8.80927
8.59746
8.38857
8.18289
7.98066
7.78215
7.58756
7.39704
7.21068
7.0285
6.85046
6.6765
6.50652
6.34041
6.1781
6.01951
5.86459
5.71331
5.56565
5.42156
5.28102
5.14397
5.01038
4.88018
4.75331
4.62973
4.50936
4.39215
4.27804
4.16695
4.05884
3.95363
3.85126
3.75167
3.6548
3.56057
3.46894
3.37982
3.29316
3.20891
3.127
3.04737
2.96993
2.89464
2.82143
2.75024
2.68101
2.61367
2.54818
2.48447
2.4225
2.3622
2.30354
2.24645
2.19091
2.13685
2.08424
2.03303
1.9832
1.9347
1.88749
1.84155
1.79683
1.75331
1.71096
1.66974
1.62963
1.5906
1.55261
1.51564
1.47966
1.44464
1.41055
1.37737
1.34508
1.31364
1.28304
1.25326
1.22427
1.19606
1.16862
1.14193
1.116
1.0908
1.06635
1.04264
1.01969
0.99747
0.976271
0.957485
3.10257
3.1024
3.10232
3.1023
3.10234
3.10242
3.10254
3.10269
3.10288
3.10309
3.10334
3.10361
3.10391
3.10425
3.10463
3.10505
3.10554
3.1061
3.10675
3.10752
3.10845
3.10958
3.11098
3.11271
3.11488
3.1176
3.12101
3.1253
3.13068
3.1374
3.14577
3.15615
3.16898
3.18475
3.20405
3.22756
3.25604
3.29039
3.33159
3.38077
3.43919
3.50825
3.58947
3.68454
3.79525
3.92346
4.07112
4.24011
4.43221
4.64902
4.89177
5.16108
5.45765
5.78088
6.12984
6.50301
6.89835
7.31331
7.74481
8.18918
8.64221
9.09926
9.55547
10.0061
10.4471
10.8747
11.2861
11.6789
12.051
12.4
12.7237
13.0194
13.285
13.5185
13.7188
13.8858
14.0195
14.121
14.1913
14.2316
14.2431
14.2273
14.1857
14.1206
14.0342
13.9294
13.809
13.6757
13.5312
13.3768
13.2128
13.0391
12.855
12.6606
12.4562
12.2416
12.0187
11.7895
11.5558
11.3197
11.083
10.847
10.6126
10.3805
10.1509
9.92359
9.69865
9.47596
9.25552
9.03742
8.82185
8.60904
8.39923
8.19271
7.98972
7.79051
7.59527
7.40416
7.21725
7.03456
6.85606
6.68168
6.5113
6.34483
6.18218
6.02329
5.8681
5.71657
5.56868
5.42438
5.28364
5.14641
5.01265
4.8823
4.7553
4.63158
4.51109
4.39377
4.27955
4.16837
4.06017
3.95487
3.85243
3.75277
3.65583
3.56154
3.46985
3.38068
3.29397
3.20967
3.12772
3.04804
2.97057
2.89524
2.822
2.75077
2.68151
2.61415
2.54863
2.48489
2.4229
2.36258
2.30389
2.24679
2.19122
2.13715
2.08452
2.0333
1.98346
1.93494
1.88772
1.84177
1.79704
1.75351
1.71115
1.66992
1.6298
1.59075
1.55276
1.51578
1.47979
1.44476
1.41066
1.37748
1.34518
1.31373
1.28313
1.25333
1.22434
1.19613
1.16868
1.14199
1.11604
1.09084
1.06638
1.04266
1.0197
0.997472
0.976264
0.957469
3.22493
3.22478
3.22471
3.22472
3.22479
3.22492
3.2251
3.22532
3.22558
3.22588
3.22621
3.22658
3.22699
3.22746
3.22797
3.22856
3.22924
3.23003
3.23097
3.23211
3.2335
3.23523
3.23738
3.24007
3.24346
3.24773
3.25309
3.2598
3.26818
3.2786
3.29148
3.30736
3.32681
3.35053
3.3793
3.41401
3.45566
3.50537
3.56437
3.63402
3.71578
3.81122
3.92203
4.04992
4.19664
4.3639
4.5533
4.76621
5.00372
5.26652
5.55478
5.86794
6.20552
6.56572
6.94653
7.34559
7.76018
8.18733
8.62371
9.06562
9.50904
9.94972
10.3835
10.8064
11.2155
11.608
11.9821
12.3362
12.6689
12.9783
13.2625
13.5194
13.7473
13.9446
14.1105
14.2449
14.3483
14.4215
14.4656
14.4817
14.4709
14.4347
14.3745
14.2922
14.1903
14.0714
13.9381
13.793
13.6379
13.4738
13.3009
13.119
12.9276
12.7265
12.5161
12.2962
12.0685
11.8349
11.5974
11.3578
11.1179
10.879
10.642
10.4074
10.1755
9.94617
9.71934
9.49493
9.27293
9.05341
8.83655
8.62257
8.4117
8.2042
8.00033
7.8003
7.60432
7.41251
7.22496
7.04168
6.86264
6.68775
6.51691
6.35003
6.18699
6.02775
5.87223
5.72041
5.57224
5.4277
5.28673
5.14929
5.01534
4.88481
4.75764
4.63377
4.51314
4.39568
4.28134
4.17005
4.06174
3.95635
3.85381
3.75407
3.65705
3.56269
3.47093
3.38169
3.29492
3.21057
3.12857
3.04884
2.97132
2.89595
2.82266
2.7514
2.6821
2.61471
2.54915
2.48539
2.42337
2.36302
2.30431
2.24719
2.1916
2.1375
2.08486
2.03363
1.98376
1.93523
1.888
1.84203
1.79728
1.75374
1.71137
1.67013
1.63
1.59094
1.55293
1.51594
1.47994
1.4449
1.4108
1.37761
1.3453
1.31384
1.28323
1.25343
1.22443
1.1962
1.16875
1.14205
1.1161
1.09088
1.06642
1.04268
1.01972
0.997475
0.976256
0.95745
3.36666
3.36639
3.36625
3.36625
3.36634
3.36651
3.36676
3.36706
3.36742
3.36782
3.36828
3.36878
3.36934
3.36997
3.37069
3.37152
3.37249
3.37365
3.37506
3.3768
3.37897
3.38169
3.38511
3.38942
3.39486
3.40169
3.41024
3.42089
3.4341
3.4504
3.4704
3.49481
3.52445
3.56025
3.60322
3.65453
3.71542
3.78724
3.87146
3.96959
4.08321
4.21393
4.36334
4.53296
4.72418
4.93817
5.1758
5.43758
5.72356
6.03328
6.36574
6.71923
7.09225
7.48209
7.88611
8.30151
8.72542
9.1548
9.58647
10.017
10.4427
10.8598
11.265
11.6552
12.0281
12.3822
12.7164
13.0297
13.3211
13.5893
13.8327
14.0496
14.2385
14.3983
14.5285
14.6292
14.7009
14.7446
14.7613
14.752
14.7178
14.6599
14.5799
14.4794
14.3609
14.2268
14.0798
13.9221
13.7554
13.5807
13.3981
13.2074
13.008
12.7997
12.5827
12.3569
12.1239
11.8856
11.6438
11.4003
11.1569
10.9148
10.6749
10.4376
10.2032
9.97155
9.74263
9.5163
9.29255
9.07145
8.85315
8.63785
8.42579
8.21721
8.01234
7.8114
7.61457
7.42198
7.23371
7.04978
6.87012
6.69466
6.52331
6.35594
6.19247
6.03283
5.87695
5.72479
5.57632
5.43149
5.29026
5.15258
5.01841
4.88767
4.76031
4.63627
4.51548
4.39787
4.28339
4.17197
4.06354
3.95804
3.8554
3.75556
3.65845
3.56401
3.47217
3.38286
3.29602
3.21161
3.12954
3.04976
2.97219
2.89677
2.82343
2.75213
2.68279
2.61535
2.54976
2.48597
2.42391
2.36354
2.3048
2.24765
2.19203
2.13792
2.08525
2.034
1.98411
1.93556
1.88831
1.84233
1.79757
1.75401
1.71162
1.67037
1.63022
1.59116
1.55314
1.51613
1.48012
1.44507
1.41096
1.37776
1.34543
1.31397
1.28335
1.25354
1.22453
1.19629
1.16883
1.14212
1.11616
1.09094
1.06646
1.04271
1.01974
0.997479
0.976247
0.957428
3.52652
3.52607
3.52588
3.52588
3.52603
3.52628
3.52662
3.52705
3.52753
3.52808
3.52869
3.52937
3.53014
3.53101
3.53203
3.53323
3.53468
3.53645
3.53865
3.54142
3.54491
3.54933
3.55491
3.56196
3.57081
3.58188
3.59564
3.61266
3.63358
3.65914
3.6902
3.72772
3.77278
3.82659
3.89044
3.96575
4.05398
4.15665
4.27531
4.41145
4.56652
4.74186
4.93861
5.15769
5.39971
5.66492
5.95316
6.26382
6.59582
6.94761
7.31721
7.70205
8.10005
8.50809
8.92337
9.34315
9.76474
10.1854
10.6024
11.0126
11.4129
11.8001
12.1714
12.5248
12.8587
13.1723
13.4651
13.7367
13.9865
14.2133
14.4159
14.5929
14.743
14.8654
14.96
15.0269
15.0669
15.0808
15.0698
15.0348
14.9767
14.8968
14.7964
14.6773
14.5416
14.3918
14.2305
14.0596
13.8809
13.6951
13.5024
13.3024
13.0945
12.8785
12.6546
12.4225
12.1839
11.9405
11.6941
11.4466
11.1994
10.9538
10.7107
10.4705
10.2334
9.99933
9.76813
9.53972
9.31408
9.09126
8.87139
8.65467
8.44131
8.23154
8.02558
7.82364
7.62589
7.43246
7.2434
7.05873
6.8784
6.70233
6.5304
6.3625
6.19855
6.03847
5.88219
5.72966
5.58085
5.43571
5.29419
5.15625
5.02183
4.89087
4.7633
4.63906
4.51809
4.40032
4.28569
4.17412
4.06556
3.95993
3.85718
3.75723
3.66002
3.56549
3.47356
3.38417
3.29725
3.21277
3.13064
3.05079
2.97316
2.89768
2.8243
2.75294
2.68355
2.61608
2.55045
2.48661
2.42452
2.36411
2.30535
2.24816
2.19252
2.13838
2.08569
2.03441
1.98451
1.93594
1.88867
1.84266
1.79789
1.75432
1.71191
1.67064
1.63048
1.5914
1.55337
1.51635
1.48033
1.44527
1.41114
1.37792
1.34559
1.31412
1.28348
1.25366
1.22464
1.1964
1.16892
1.1422
1.11623
1.09099
1.06651
1.04275
1.01976
0.997484
0.976237
0.957403
3.70304
3.70258
3.70244
3.70254
3.70279
3.70318
3.70366
3.70424
3.7049
3.70563
3.70646
3.70739
3.70846
3.70971
3.7112
3.71302
3.71527
3.71811
3.72169
3.72624
3.73203
3.73938
3.74865
3.76031
3.77486
3.7929
3.81513
3.84232
3.87538
3.91533
3.96329
4.02052
4.08841
4.16842
4.26208
4.37096
4.49657
4.64039
4.80373
4.98771
5.19324
5.42092
5.67103
5.94349
6.23782
6.55317
6.88828
7.24151
7.6109
7.99418
8.38881
8.79189
9.20121
9.61376
10.027
10.4386
10.8463
11.2479
11.641
12.0231
12.3914
12.7434
13.077
13.3907
13.6838
13.9559
14.2072
14.4375
14.6462
14.8327
14.9956
15.1338
15.2463
15.3326
15.3926
15.4268
15.4359
15.4208
15.3827
15.3223
15.2407
15.139
15.0184
14.8807
14.7279
14.5624
14.3865
14.2024
14.0114
13.8144
13.6113
13.4018
13.1852
12.9613
12.7302
12.4917
12.2472
11.9986
11.7475
11.4956
11.2446
10.9954
10.749
10.5057
10.2657
10.029
9.79543
9.56483
9.33719
9.11254
8.89101
8.67278
8.45804
8.247
8.03989
7.83688
7.63815
7.4438
7.2539
7.06845
6.88739
6.71065
6.5381
6.36964
6.20517
6.04461
5.8879
5.73497
5.58579
5.44031
5.29849
5.16026
5.02558
4.89437
4.76657
4.64213
4.52096
4.40301
4.2882
4.17648
4.06777
3.96201
3.85913
3.75907
3.66175
3.56711
3.47509
3.38561
3.29861
3.21405
3.13185
3.05193
2.97423
2.8987
2.82525
2.75384
2.6844
2.61688
2.55121
2.48733
2.4252
2.36475
2.30595
2.24874
2.19307
2.1389
2.08618
2.03488
1.98495
1.93636
1.88906
1.84304
1.79825
1.75465
1.71223
1.67095
1.63077
1.59167
1.55362
1.51659
1.48055
1.44548
1.41134
1.37811
1.34577
1.31428
1.28363
1.2538
1.22477
1.19651
1.16903
1.14229
1.11631
1.09106
1.06656
1.04278
1.01978
0.997489
0.976226
0.957375
3.89529
3.89493
3.89491
3.89514
3.89554
3.89608
3.89674
3.89752
3.8984
3.89939
3.90052
3.90183
3.90338
3.90525
3.90756
3.91046
3.91415
3.91886
3.9249
3.93261
3.94241
3.95481
3.97038
3.98977
4.01373
4.04311
4.07886
4.12207
4.17391
4.2357
4.30887
4.39496
4.49556
4.6123
4.74673
4.90029
5.07423
5.26949
5.48672
5.72616
5.98769
6.27081
6.57465
6.89797
7.23926
7.5967
7.96826
8.35172
8.74471
9.14472
9.5492
9.95539
10.3614
10.7645
11.1629
11.5548
11.9384
12.312
12.6738
13.0215
13.353
13.6662
13.9595
14.232
14.4837
14.7145
14.925
15.1151
15.2845
15.4323
15.5575
15.659
15.736
15.7881
15.8155
15.8187
15.7986
15.756
15.6921
15.6076
15.5034
15.3807
15.2406
15.0848
14.9153
14.7345
14.5445
14.3472
14.1442
13.9359
13.7225
13.5034
13.2782
13.0463
12.808
12.563
12.3127
12.0587
11.8028
11.5466
11.2915
11.0387
10.7889
10.5425
10.2996
10.0602
9.8241
9.59123
9.36151
9.13497
8.91172
8.69191
8.47573
8.26338
8.05505
7.85093
7.65116
7.45586
7.26508
7.0788
6.89698
6.71953
6.54633
6.37728
6.21226
6.05119
5.89401
5.74066
5.59109
5.44526
5.3031
5.16457
5.0296
4.89813
4.7701
4.64543
4.52405
4.40591
4.29092
4.17903
4.07017
3.96427
3.86125
3.76106
3.66363
3.56888
3.47675
3.38718
3.30009
3.21544
3.13316
3.05317
2.9754
2.8998
2.82629
2.75482
2.68533
2.61775
2.55203
2.48811
2.42593
2.36545
2.30661
2.24936
2.19366
2.13946
2.08671
2.03538
1.98543
1.93681
1.8895
1.84345
1.79864
1.75502
1.71258
1.67128
1.63108
1.59197
1.5539
1.51686
1.4808
1.44571
1.41156
1.37832
1.34596
1.31446
1.2838
1.25395
1.22491
1.19664
1.16914
1.14239
1.11639
1.09113
1.06662
1.04282
1.0198
0.997494
0.976214
0.957345
4.1025
4.1021
4.10214
4.10248
4.10302
4.10375
4.10465
4.10568
4.10687
4.10824
4.10985
4.11178
4.11416
4.11713
4.12093
4.12582
4.13212
4.14025
4.15069
4.16398
4.18079
4.20186
4.22802
4.26022
4.29948
4.34696
4.40391
4.47169
4.55177
4.64571
4.75514
4.88171
5.02699
5.19243
5.37919
5.58812
5.8196
6.07355
6.34942
6.64622
6.96255
7.29675
7.64689
8.0109
8.38661
8.77177
9.16412
9.56138
9.9613
10.3616
10.7602
11.1546
11.5435
11.925
12.2976
12.6601
13.0116
13.3505
13.6755
13.9847
14.2762
14.5485
14.8004
15.0316
15.2423
15.433
15.6042
15.7561
15.8883
15.9999
16.09
16.1574
16.2015
16.222
16.2193
16.1939
16.1468
16.0788
15.9909
15.8839
15.7587
15.6162
15.4578
15.285
15.0997
14.9043
14.7007
14.4909
14.2762
14.0571
13.8336
13.6053
13.3715
13.1318
12.8865
12.635
12.3789
12.1197
11.8591
11.5986
11.3395
11.083
10.8298
10.5802
10.3344
10.0923
9.85367
9.61849
9.38666
9.1582
8.93319
8.71178
8.49413
8.28043
8.07087
7.8656
7.66477
7.46849
7.27678
7.08966
6.90705
6.72887
6.55499
6.38531
6.21972
6.05813
5.90047
5.74668
5.5967
5.45049
5.30799
5.16914
5.03387
4.90213
4.77384
4.64893
4.52734
4.40899
4.29382
4.18175
4.07273
3.96667
3.86351
3.76319
3.66563
3.57077
3.47853
3.38886
3.30167
3.21693
3.13457
3.0545
2.97666
2.90098
2.82741
2.75588
2.68632
2.61869
2.55292
2.48895
2.42673
2.3662
2.30732
2.25003
2.1943
2.14006
2.08728
2.03593
1.98594
1.9373
1.88996
1.84389
1.79906
1.75542
1.71296
1.67164
1.63142
1.59229
1.55421
1.51714
1.48107
1.44596
1.4118
1.37854
1.34616
1.31465
1.28398
1.25412
1.22506
1.19678
1.16926
1.1425
1.11649
1.09121
1.06668
1.04287
1.01983
0.9975
0.976201
0.957312
4.32301
4.32248
4.32261
4.32313
4.3239
4.32491
4.32613
4.32756
4.32923
4.33123
4.33367
4.33672
4.34063
4.3457
4.35229
4.36089
4.37204
4.38639
4.4047
4.42782
4.4567
4.49242
4.53613
4.5891
4.65265
4.72823
4.81732
4.92147
5.04226
5.18129
5.34005
5.5199
5.72193
5.94684
6.19482
6.46552
6.75801
7.07079
7.40197
7.74932
8.11045
8.48292
8.86431
9.2523
9.64466
10.0393
10.4343
10.8277
11.2178
11.6029
11.9811
12.351
12.7116
13.0615
13.4
13.7265
14.0401
14.34
14.6249
14.8933
15.1435
15.3743
15.5851
15.7758
15.9469
16.0993
16.2335
16.3497
16.4474
16.5257
16.5835
16.6198
16.6341
16.6261
16.5962
16.545
16.4735
16.3825
16.2728
16.1454
16.0011
15.8407
15.6655
15.477
15.2772
15.0681
14.852
14.6304
14.4047
14.1754
13.9424
13.7052
13.4633
13.2161
12.9641
12.7064
12.4447
12.1805
11.9153
11.6506
11.3877
11.1276
10.871
10.6183
10.3696
10.1247
9.88366
9.64619
9.41226
9.18188
8.95511
8.73209
8.51297
8.29792
8.08711
7.88069
7.67879
7.48151
7.28888
7.10089
6.91747
6.73854
6.56397
6.39365
6.22748
6.06535
5.90719
5.75295
5.60255
5.45596
5.3131
5.17392
5.03835
4.90632
4.77777
4.65262
4.5308
4.41224
4.29687
4.18462
4.07542
3.9692
3.8659
3.76544
3.66775
3.57276
3.48042
3.39063
3.30334
3.21851
3.13606
3.05591
2.97799
2.90224
2.82859
2.757
2.68738
2.61969
2.55386
2.48984
2.42757
2.367
2.30808
2.25075
2.19498
2.14071
2.0879
2.03651
1.9865
1.93783
1.89046
1.84437
1.79951
1.75585
1.71336
1.67202
1.63179
1.59263
1.55453
1.51745
1.48136
1.44624
1.41205
1.37877
1.34638
1.31486
1.28417
1.25429
1.22522
1.19692
1.16939
1.14262
1.11659
1.09129
1.06674
1.04292
1.01985
0.997507
0.976186
0.957276
4.55509
4.55461
4.55499
4.55583
4.55697
4.55841
4.56013
4.56219
4.5647
4.56783
4.57185
4.57709
4.58399
4.5931
4.60506
4.62065
4.64074
4.66634
4.69857
4.73866
4.78794
4.84783
4.91981
5.0054
5.10612
5.22349
5.35898
5.51399
5.68979
5.88748
6.10788
6.35145
6.61815
6.9074
7.21796
7.54802
7.89523
8.25689
8.63013
9.01207
9.39998
9.79134
10.1839
10.5758
10.9652
11.3506
11.7307
12.1042
12.4699
12.8266
13.1733
13.5089
13.8329
14.1445
14.4435
14.7296
15.0024
15.2611
15.5047
15.7317
15.9408
16.1311
16.302
16.4541
16.588
16.7046
16.8046
16.8879
16.9542
17.0022
17.031
17.0395
17.0271
16.9937
16.9398
16.8658
16.7728
16.6615
16.5328
16.3873
16.226
16.0496
15.8594
15.657
15.4441
15.2228
14.9952
14.763
14.5272
14.2885
14.0466
13.8012
13.5517
13.2976
13.0392
12.7758
12.5088
12.2398
11.9703
11.7016
11.4351
11.1716
10.9118
10.6561
10.4045
10.1571
9.91359
9.67388
9.43789
9.20563
8.97714
8.75255
8.53198
8.31559
8.10355
7.89599
7.69303
7.49475
7.30119
7.11234
6.92811
6.74843
6.57317
6.40221
6.23544
6.07276
5.91411
5.7594
5.60858
5.46159
5.31837
5.17886
5.04298
4.91066
4.78184
4.65644
4.53439
4.41561
4.30004
4.1876
4.07823
3.97185
3.86839
3.76778
3.66996
3.57485
3.48239
3.39249
3.3051
3.22017
3.13763
3.05739
2.97938
2.90356
2.82984
2.75818
2.6885
2.62074
2.55486
2.49078
2.42846
2.36785
2.30888
2.25151
2.1957
2.14139
2.08854
2.03712
1.98708
1.93838
1.89099
1.84487
1.79998
1.7563
1.71379
1.67243
1.63217
1.593
1.55487
1.51777
1.48167
1.44652
1.41232
1.37903
1.34662
1.31508
1.28437
1.25448
1.22539
1.19708
1.16953
1.14274
1.11669
1.09138
1.06681
1.04297
1.01988
0.997514
0.976171
0.957238
4.79783
4.7976
4.7984
4.79968
4.80133
4.80338
4.80593
4.80912
4.81321
4.81861
4.82581
4.83546
4.84833
4.86534
4.88757
4.91621
4.95258
4.99813
5.05442
5.12305
5.2057
5.304
5.41957
5.55387
5.70821
5.8837
6.08118
6.30124
6.54418
6.80991
7.098
7.4075
7.73697
8.08439
8.44725
8.82261
9.20732
9.59816
9.99208
10.3863
10.7786
11.1669
11.5497
11.9257
12.2941
12.6539
13.0046
13.3454
13.6757
13.9948
14.3022
14.5972
14.8797
15.1494
15.4062
15.6503
15.8813
16.0987
16.3014
16.4881
16.6577
16.8093
16.9429
17.059
17.1584
17.2423
17.3112
17.3649
17.4029
17.424
17.4271
17.4111
17.3754
17.3201
17.2453
17.1517
17.0402
16.9115
16.7663
16.6054
16.4294
16.2393
16.0362
15.8216
15.5973
15.3654
15.1277
14.886
14.6413
14.3941
14.1443
13.8915
13.635
13.3746
13.1104
12.8418
12.57
12.2966
12.0232
11.7509
11.4809
11.2142
10.9514
10.6929
10.4387
10.1888
9.94294
9.7011
9.46315
9.22908
8.99894
8.77283
8.55086
8.33319
8.11995
7.91128
7.70728
7.50804
7.31357
7.12386
6.93884
6.75841
6.58246
6.41086
6.2435
6.08029
5.92113
5.76596
5.61472
5.46734
5.32376
5.18391
5.04771
4.91511
4.78602
4.66036
4.53808
4.41908
4.30331
4.19068
4.08113
3.97458
3.87097
3.77022
3.67226
3.57702
3.48443
3.39442
3.30692
3.22189
3.13926
3.05893
2.98084
2.90493
2.83114
2.75941
2.68966
2.62184
2.5559
2.49177
2.4294
2.36873
2.30971
2.2523
2.19645
2.1421
2.08922
2.03777
1.98769
1.93896
1.89154
1.84539
1.80048
1.75678
1.71425
1.67286
1.63258
1.59338
1.55524
1.51812
1.48199
1.44683
1.4126
1.37929
1.34687
1.31531
1.28458
1.25468
1.22557
1.19724
1.16968
1.14287
1.11681
1.09148
1.06689
1.04302
1.01991
0.997521
0.976154
0.957197
5.05045
5.05057
5.05191
5.0538
5.05621
5.05934
5.06345
5.06894
5.07638
5.08655
5.10041
5.11908
5.14387
5.17625
5.21782
5.27031
5.33554
5.41536
5.51164
5.62617
5.76062
5.91638
6.09458
6.2959
6.52064
6.76861
7.03925
7.33161
7.64444
7.97624
8.32518
8.68916
9.0657
9.45205
9.84515
10.2419
10.639
11.0338
11.4237
11.8066
12.1812
12.5462
12.901
13.2451
13.5783
13.9005
14.2115
14.5111
14.7991
15.0753
15.3392
15.5907
15.8298
16.0565
16.271
16.4735
16.6638
16.8414
17.0052
17.1539
17.2866
17.4025
17.5018
17.5851
17.6536
17.7081
17.7492
17.7767
17.7898
17.7874
17.7682
17.7311
17.6755
17.6014
17.5091
17.3991
17.2721
17.1289
16.97
16.7962
16.6081
16.4066
16.1927
15.968
15.7341
15.4932
15.247
14.9971
14.7447
14.4902
14.2335
13.9741
13.7116
13.4456
13.1764
12.9031
12.627
12.3499
12.0729
11.7973
11.5243
11.2548
10.9893
10.7281
10.4715
10.2192
9.97124
9.7274
9.48761
9.25185
9.02016
8.79262
8.56933
8.35044
8.13607
7.92634
7.72136
7.52118
7.32584
7.1353
6.94951
6.76836
6.59173
6.41951
6.25157
6.08783
5.92818
5.77256
5.6209
5.47314
5.3292
5.18901
5.05251
4.91961
4.79025
4.66435
4.54183
4.42262
4.30664
4.19382
4.08409
3.97738
3.87361
3.77271
3.67461
3.57924
3.48654
3.39641
3.3088
3.22367
3.14094
3.06052
2.98234
2.90636
2.83249
2.76068
2.69086
2.62298
2.55698
2.49279
2.43036
2.36964
2.31058
2.25313
2.19723
2.14285
2.08993
2.03844
1.98833
1.93957
1.89212
1.84594
1.80101
1.75727
1.71472
1.6733
1.633
1.59378
1.55562
1.51847
1.48233
1.44715
1.4129
1.37957
1.34713
1.31555
1.28481
1.25489
1.22576
1.19742
1.16984
1.14301
1.11693
1.09158
1.06697
1.04308
1.01995
0.997528
0.976137
0.957154
5.31157
5.31219
5.31441
5.31737
5.32131
5.32676
5.33434
5.34497
5.35983
5.38036
5.40821
5.44524
5.49344
5.55491
5.6318
5.72626
5.84034
5.97592
6.1346
6.31764
6.52576
6.75915
7.01733
7.29917
7.603
7.92671
8.26792
8.62418
8.99306
9.37222
9.75935
10.1521
10.5481
10.9447
11.3394
11.7295
12.1125
12.4865
12.8498
13.2013
13.5404
13.8667
14.1805
14.4818
14.771
15.0483
15.3141
15.5684
15.8112
16.0426
16.2622
16.4701
16.6666
16.8516
17.0256
17.1888
17.3409
17.4815
17.6094
17.7235
17.8227
17.9065
17.9752
18.0295
18.0706
18.0993
18.1162
18.121
18.1127
18.0902
18.052
17.9972
17.925
17.8355
17.7288
17.6054
17.466
17.3111
17.1414
16.9573
16.7596
16.5489
16.3265
16.0937
15.8522
15.604
15.3509
15.0945
14.8357
14.5751
14.3125
14.0477
13.78
13.5093
13.2359
12.9586
12.6789
12.3985
12.1185
11.8402
11.5646
11.2925
11.0246
10.7611
10.5023
10.2479
9.998
9.75234
9.51088
9.27357
9.04045
8.8116
8.5871
8.36709
8.15167
7.94095
7.73504
7.53399
7.33782
7.14651
6.95998
6.77814
6.60086
6.42804
6.25955
6.09529
5.93517
5.77912
5.62705
5.47891
5.33462
5.19411
5.05731
4.92413
4.79451
4.66836
4.54561
4.42618
4.31
4.197
4.08709
3.98021
3.87628
3.77524
3.677
3.58151
3.48868
3.39844
3.31072
3.22548
3.14266
3.06214
2.98388
2.90781
2.83387
2.76198
2.6921
2.62415
2.55808
2.49384
2.43136
2.37059
2.31148
2.25398
2.19804
2.14361
2.09066
2.03913
1.98899
1.9402
1.89272
1.84651
1.80155
1.75779
1.71521
1.67377
1.63344
1.5942
1.55601
1.51885
1.48268
1.44748
1.41321
1.37986
1.3474
1.3158
1.28504
1.2551
1.22596
1.1976
1.17
1.14315
1.11705
1.09168
1.06705
1.04313
1.01998
0.997536
0.976118
0.957108
5.58009
5.58164
5.58553
5.59081
5.5983
5.60922
5.62501
5.64754
5.67898
5.72178
5.77852
5.85182
5.9443
6.05838
6.19627
6.35976
6.55018
6.76824
7.01399
7.28669
7.58485
7.9062
8.24783
8.60636
8.97823
9.3599
9.74816
10.1403
10.5339
10.9274
11.319
11.7073
12.0909
12.4678
12.8365
13.1951
13.542
13.8761
14.1964
14.5027
14.7951
15.0738
15.3395
15.5927
15.8341
16.0642
16.2834
16.4921
16.6903
16.878
17.0553
17.222
17.3785
17.525
17.6618
17.7892
17.9069
18.0143
18.1103
18.1936
18.2634
18.3192
18.3612
18.3905
18.4081
18.4149
18.4112
18.3968
18.3705
18.3312
18.2774
18.2081
18.1227
18.0208
17.9028
17.7691
17.6201
17.4564
17.2785
17.0868
16.8819
16.6645
16.4357
16.1969
15.9498
15.6962
15.4378
15.1763
14.9125
14.6471
14.3799
14.1107
13.8389
13.5644
13.2877
13.0072
12.7246
12.4415
12.1592
11.8786
11.6008
11.3266
11.0567
10.7913
10.5305
10.2744
10.0227
9.77548
9.53254
9.29386
9.05948
8.82946
8.60388
8.38286
8.16649
7.95489
7.74813
7.54628
7.34935
7.15731
6.9701
6.78761
6.60973
6.43634
6.26733
6.10259
5.94202
5.78555
5.6331
5.4846
5.33998
5.19916
5.06206
4.92861
4.79874
4.67235
4.54938
4.42974
4.31336
4.20017
4.0901
3.98305
3.87897
3.77779
3.67942
3.58379
3.49084
3.40049
3.31266
3.22732
3.1444
3.0638
2.98545
2.9093
2.83527
2.76331
2.69336
2.62535
2.55922
2.49491
2.43237
2.37155
2.31239
2.25485
2.19886
2.1444
2.09141
2.03984
1.98967
1.94084
1.89333
1.8471
1.8021
1.75832
1.71571
1.67425
1.6339
1.59463
1.55642
1.51923
1.48304
1.44782
1.41353
1.38017
1.34768
1.31607
1.28529
1.25533
1.22617
1.19778
1.17017
1.1433
1.11718
1.09179
1.06713
1.04319
1.02002
0.997543
0.976099
0.95706
5.85591
5.85991
5.86755
5.87834
5.89455
5.91889
5.95431
6.00416
6.07193
6.16107
6.27479
6.41582
6.58632
6.78768
7.02039
7.28404
7.57722
7.89769
8.24236
8.60756
8.9891
9.38257
9.78353
10.1878
10.5916
10.9918
11.3863
11.7736
12.1528
12.5237
12.886
13.2394
13.5835
13.9175
14.2402
14.5506
14.8477
15.1308
15.3998
15.6546
15.8958
16.1242
16.3404
16.5453
16.7397
16.9241
17.0991
17.2649
17.4217
17.5695
17.7082
17.8378
17.9587
18.071
18.1751
18.2712
18.3589
18.4376
18.5061
18.5632
18.608
18.64
18.6598
18.6682
18.6662
18.6548
18.6342
18.6041
18.5632
18.5104
18.4443
18.3637
18.2679
18.1569
18.0305
17.8893
17.7335
17.5637
17.3801
17.1833
16.9736
16.7518
16.5189
16.2762
16.0254
15.7681
15.5062
15.2411
14.9739
14.705