/*--------------------------------*- C++ -*----------------------------------*\
| =========                 |                                                 |
| \\      /  F ield         | OpenFOAM: The Open Source CFD Toolbox           |
|  \\    /   O peration     | Version:  1.7.0                                 |
|   \\  /    A nd           | Web:      www.OpenFOAM.com                      |
|    \\/     M anipulation  |                                                 |
\*---------------------------------------------------------------------------*/
FoamFile
{
    version     2.0;
    format      ascii;
    class       volScalarField;
    location    "10000";
    object      mut;
}
// * * * * * * * * * * * * * * * * * * * * * * * * * * * * * * * * * * * * * //

dimensions      [1 -1 -1 0 0 0 0];

internalField   nonuniform List<scalar> 
14800
(
0.00104222
0.00104211
0.00104201
0.00104192
0.00104183
0.00104176
0.00104169
0.00104163
0.00104158
0.00104154
0.0010415
0.00104148
0.00104146
0.00104145
0.00104144
0.00104145
0.00104147
0.0010415
0.00104154
0.00104159
0.00104166
0.00104174
0.00104185
0.00104198
0.00104214
0.00104234
0.0010426
0.00104291
0.0010433
0.00104379
0.0010444
0.00104515
0.00104609
0.00104725
0.00104869
0.00105045
0.00105261
0.00105525
0.00105844
0.0010623
0.00106694
0.00107248
0.00107908
0.00108689
0.0010961
0.00110693
0.0011196
0.00113439
0.0011516
0.00117158
0.00119471
0.00122139
0.00125217
0.00128749
0.00132786
0.00137375
0.0014256
0.00148377
0.00154851
0.00161992
0.00169784
0.00178182
0.00187112
0.00196472
0.00206152
0.0021605
0.00226087
0.00236214
0.00246402
0.00256628
0.00266859
0.00277044
0.00287114
0.00296997
0.00306627
0.00315955
0.00324954
0.0033361
0.00341919
0.00349873
0.00357463
0.0036468
0.00371522
0.00378009
0.00384182
0.00390109
0.00395868
0.00401538
0.00407174
0.0041279
0.00418356
0.00423799
0.00429018
0.00433915
0.00438431
0.00442439
0.00445976
0.00449088
0.00451851
0.00454357
0.004567
0.00458953
0.00461169
0.00463369
0.00465548
0.00467682
0.0046974
0.00471689
0.00473504
0.0047517
0.00476681
0.00478041
0.00479257
0.00480346
0.00481325
0.00482214
0.00483035
0.00483805
0.00484537
0.00485238
0.00485906
0.00486537
0.0048712
0.00487647
0.00488108
0.00488499
0.00488818
0.00489066
0.00489247
0.00489366
0.00489426
0.00489434
0.00489394
0.0048931
0.00489185
0.00489023
0.00488827
0.00488599
0.00488341
0.00488055
0.00487739
0.00487394
0.00487018
0.0048661
0.0048617
0.00485696
0.00485189
0.00484648
0.00484073
0.00483468
0.00482834
0.00482173
0.00481486
0.00480774
0.00480041
0.00479285
0.00478509
0.00477713
0.00476897
0.00476063
0.00475212
0.00474343
0.0047346
0.00472562
0.00471652
0.00470733
0.00469808
0.00468881
0.00467957
0.00467042
0.00466142
0.00465262
0.00464409
0.00463587
0.00462801
0.00462052
0.00461342
0.0046067
0.00460034
0.00459432
0.00458861
0.00458319
0.00457806
0.00457325
0.0045688
0.00456483
0.00456149
0.00455902
0.00455774
0.00455807
0.00456057
0.00456591
0.00457496
0.00458871
0.00460836
0.0046352
0.00467078
0.00471647
0.00477418
0.0048415
0.00103872
0.00103865
0.00103857
0.0010385
0.00103843
0.00103837
0.00103831
0.00103826
0.00103822
0.00103819
0.00103816
0.00103814
0.00103813
0.00103813
0.00103813
0.00103815
0.00103817
0.00103821
0.00103826
0.00103832
0.00103839
0.00103849
0.0010386
0.00103875
0.00103893
0.00103915
0.00103942
0.00103977
0.00104019
0.00104072
0.00104137
0.00104218
0.00104319
0.00104443
0.00104595
0.00104782
0.0010501
0.00105287
0.00105621
0.00106023
0.00106504
0.00107076
0.00107755
0.00108555
0.00109496
0.00110597
0.00111884
0.00113383
0.00115124
0.00117144
0.00119481
0.00122178
0.00125291
0.00128865
0.0013295
0.00137594
0.00142838
0.00148717
0.00155252
0.00162449
0.00170288
0.00178723
0.00187677
0.00197048
0.0020673
0.00216622
0.00226649
0.00236763
0.00246935
0.00257142
0.00267352
0.00277512
0.00287556
0.00297412
0.00307014
0.00316316
0.00325291
0.00333925
0.00342213
0.00350148
0.0035772
0.00364919
0.00371747
0.00378219
0.0038438
0.00390294
0.00396041
0.00401699
0.00407322
0.00412926
0.0041848
0.00423911
0.0042912
0.00434009
0.00438518
0.00442519
0.00446052
0.00449161
0.00451921
0.00454425
0.00456765
0.00459016
0.00461229
0.00463425
0.004656
0.00467731
0.00469785
0.0047173
0.00473543
0.00475206
0.00476716
0.00478073
0.00479288
0.00480375
0.00481352
0.0048224
0.0048306
0.00483828
0.00484559
0.00485257
0.00485924
0.00486553
0.00487136
0.00487661
0.00488121
0.00488511
0.00488829
0.00489076
0.00489256
0.00489374
0.00489434
0.00489442
0.00489401
0.00489316
0.0048919
0.00489028
0.00488831
0.00488603
0.00488345
0.00488058
0.00487742
0.00487396
0.0048702
0.00486612
0.00486172
0.00485698
0.0048519
0.00484648
0.00484074
0.00483468
0.00482835
0.00482173
0.00481486
0.00480775
0.00480041
0.00479285
0.00478509
0.00477713
0.00476897
0.00476063
0.00475212
0.00474343
0.0047346
0.00472562
0.00471652
0.00470733
0.00469808
0.00468881
0.00467957
0.00467042
0.00466142
0.00465262
0.00464408
0.00463586
0.00462799
0.0046205
0.00461339
0.00460667
0.0046003
0.00459428
0.00458856
0.00458313
0.004578
0.00457317
0.00456872
0.00456474
0.00456139
0.00455891
0.00455761
0.00455793
0.0045604
0.00456572
0.00457474
0.00458845
0.00460805
0.00463483
0.00467033
0.00471593
0.00477354
0.00484074
0.00103155
0.00103144
0.00103136
0.00103129
0.00103123
0.00103118
0.00103115
0.00103112
0.00103109
0.00103108
0.00103107
0.00103107
0.00103107
0.00103108
0.0010311
0.00103113
0.00103117
0.00103123
0.00103129
0.00103137
0.00103147
0.00103158
0.00103173
0.0010319
0.00103212
0.00103238
0.00103271
0.00103311
0.00103361
0.00103422
0.00103499
0.00103592
0.00103708
0.00103849
0.00104022
0.00104232
0.00104486
0.00104792
0.00105159
0.00105596
0.00106115
0.00106728
0.00107449
0.00108294
0.0010928
0.0011043
0.00111768
0.00113321
0.00115122
0.0011721
0.00119627
0.00122415
0.00125635
0.0012933
0.00133549
0.00138335
0.00143725
0.00149746
0.00156413
0.00163723
0.00171651
0.00180146
0.00189128
0.001985
0.0020816
0.00218016
0.00227998
0.00238062
0.00248182
0.00258334
0.00268484
0.00278582
0.00288561
0.00298351
0.00307889
0.0031713
0.00326047
0.00334628
0.00342868
0.00350757
0.00358288
0.00365449
0.00372241
0.00378682
0.00384812
0.00390698
0.00396419
0.00402051
0.00407649
0.00413227
0.00418756
0.00424163
0.0042935
0.00434219
0.00438713
0.004427
0.00446222
0.00449321
0.00452074
0.00454572
0.00456906
0.00459151
0.00461357
0.00463546
0.00465714
0.00467837
0.00469884
0.00471823
0.00473629
0.00475287
0.00476791
0.00478144
0.00479355
0.00480439
0.00481413
0.00482297
0.00483113
0.00483878
0.00484605
0.00485301
0.00485964
0.0048659
0.00487169
0.00487691
0.00488149
0.00488536
0.00488852
0.00489098
0.00489276
0.00489392
0.00489451
0.00489457
0.00489415
0.00489329
0.00489203
0.00489039
0.00488842
0.00488612
0.00488354
0.00488065
0.00487748
0.00487402
0.00487025
0.00486616
0.00486175
0.004857
0.00485192
0.0048465
0.00484075
0.00483469
0.00482835
0.00482174
0.00481486
0.00480775
0.00480041
0.00479285
0.00478509
0.00477713
0.00476897
0.00476063
0.00475212
0.00474343
0.00473459
0.00472562
0.00471652
0.00470733
0.00469808
0.00468881
0.00467957
0.00467041
0.00466141
0.0046526
0.00464406
0.00463583
0.00462796
0.00462045
0.00461334
0.0046066
0.00460022
0.00459418
0.00458845
0.00458301
0.00457786
0.00457302
0.00456855
0.00456455
0.00456118
0.00455867
0.00455735
0.00455764
0.00456007
0.00456534
0.00457429
0.00458792
0.00460742
0.00463407
0.00466942
0.00471483
0.00477222
0.00483919
0.00102107
0.001021
0.00102095
0.00102091
0.00102088
0.00102086
0.00102085
0.00102084
0.00102084
0.00102085
0.00102086
0.00102088
0.00102091
0.00102094
0.00102099
0.00102104
0.0010211
0.00102118
0.00102127
0.00102137
0.0010215
0.00102165
0.00102184
0.00102206
0.00102233
0.00102267
0.00102308
0.00102358
0.0010242
0.00102496
0.00102589
0.00102704
0.00102843
0.00103011
0.00103215
0.00103461
0.00103756
0.00104107
0.00104523
0.00105015
0.00105592
0.00106269
0.00107057
0.00107976
0.00109042
0.0011028
0.00111715
0.00113379
0.00115309
0.00117545
0.00120133
0.00123116
0.00126553
0.00130484
0.00134949
0.00139982
0.0014561
0.00151847
0.00158699
0.00166155
0.00174182
0.00182725
0.00191707
0.00201038
0.00210623
0.00220383
0.00230259
0.00240213
0.00250222
0.00260264
0.00270303
0.00280287
0.00290152
0.00299829
0.00309259
0.00318398
0.00327221
0.00335717
0.00343877
0.00351695
0.00359158
0.00366259
0.00372995
0.00379384
0.00385468
0.00391311
0.00396991
0.00402584
0.00408144
0.00413686
0.00419178
0.00424549
0.00429702
0.00434541
0.0043901
0.00442974
0.00446478
0.00449563
0.00452304
0.00454793
0.00457117
0.00459353
0.00461549
0.00463728
0.00465884
0.00467996
0.00470032
0.00471961
0.00473758
0.00475408
0.00476905
0.00478251
0.00479456
0.00480534
0.00481503
0.00482382
0.00483194
0.00483954
0.00484676
0.00485366
0.00486024
0.00486645
0.00487219
0.00487737
0.00488191
0.00488575
0.00488887
0.0048913
0.00489306
0.0048942
0.00489477
0.00489481
0.00489437
0.00489349
0.00489221
0.00489056
0.00488857
0.00488626
0.00488366
0.00488076
0.00487758
0.0048741
0.00487032
0.00486622
0.0048618
0.00485704
0.00485196
0.00484653
0.00484077
0.00483471
0.00482836
0.00482175
0.00481487
0.00480775
0.00480041
0.00479285
0.00478508
0.00477712
0.00476897
0.00476063
0.00475211
0.00474343
0.00473459
0.00472561
0.00471651
0.00470732
0.00469807
0.0046888
0.00467956
0.0046704
0.00466139
0.00465258
0.00464403
0.00463579
0.0046279
0.00462039
0.00461325
0.0046065
0.0046001
0.00459404
0.00458829
0.00458283
0.00457765
0.00457279
0.0045683
0.00456427
0.00456087
0.00455834
0.00455697
0.00455721
0.00455958
0.00456478
0.00457364
0.00458715
0.0046065
0.00463298
0.0046681
0.00471325
0.00477032
0.00483695
0.00100813
0.00100807
0.00100803
0.00100801
0.001008
0.001008
0.00100801
0.00100802
0.00100804
0.00100807
0.00100811
0.00100815
0.00100821
0.00100827
0.00100834
0.00100842
0.00100851
0.00100862
0.00100874
0.00100889
0.00100906
0.00100926
0.00100951
0.0010098
0.00101016
0.0010106
0.00101113
0.00101178
0.00101258
0.00101355
0.00101472
0.00101615
0.00101787
0.00101993
0.00102241
0.00102536
0.00102885
0.00103298
0.00103783
0.0010435
0.00105011
0.00105779
0.0010667
0.00107702
0.00108898
0.00110285
0.00111892
0.00113756
0.00115916
0.00118417
0.00121302
0.0012461
0.00128395
0.00132685
0.00137506
0.00142878
0.00148812
0.00155313
0.00162375
0.00169977
0.00178083
0.00186639
0.00195571
0.00204797
0.00214238
0.0022383
0.00233525
0.00243297
0.00253126
0.00262991
0.00272855
0.00282666
0.0029236
0.00301872
0.00311144
0.00320137
0.00328825
0.00337198
0.00345246
0.00352962
0.00360332
0.00367347
0.00374005
0.00380324
0.00386343
0.00392127
0.00397753
0.00403295
0.00408804
0.00414296
0.0041974
0.00425064
0.00430173
0.00434971
0.00439405
0.00443339
0.00446819
0.00449884
0.00452609
0.00455083
0.00457395
0.00459619
0.00461802
0.00463967
0.00466109
0.00468207
0.00470229
0.00472145
0.00473929
0.00475568
0.00477055
0.00478392
0.00479589
0.0048066
0.00481622
0.00482495
0.00483299
0.00484053
0.00484768
0.00485452
0.00486104
0.00486718
0.00487286
0.00487798
0.00488246
0.00488625
0.00488934
0.00489173
0.00489345
0.00489456
0.0048951
0.00489512
0.00489466
0.00489375
0.00489245
0.00489078
0.00488877
0.00488644
0.00488382
0.00488091
0.00487771
0.00487421
0.00487041
0.0048663
0.00486186
0.0048571
0.004852
0.00484656
0.00484079
0.00483472
0.00482837
0.00482175
0.00481487
0.00480775
0.0048004
0.00479284
0.00478508
0.00477711
0.00476895
0.00476061
0.0047521
0.00474341
0.00473458
0.0047256
0.0047165
0.00470731
0.00469806
0.00468879
0.00467954
0.00467038
0.00466137
0.00465255
0.00464399
0.00463574
0.00462783
0.0046203
0.00461314
0.00460636
0.00459994
0.00459386
0.00458808
0.00458259
0.00457738
0.00457249
0.00456797
0.00456391
0.00456047
0.00455789
0.00455648
0.00455665
0.00455895
0.00456405
0.00457278
0.00458614
0.00460531
0.00463155
0.00466638
0.00471118
0.00476784
0.00483403
0.000993272
0.000993183
0.000993127
0.000993099
0.000993092
0.000993102
0.000993126
0.000993163
0.000993209
0.000993265
0.00099333
0.000993404
0.000993486
0.000993578
0.000993681
0.000993797
0.000993927
0.000994075
0.000994246
0.000994444
0.000994676
0.000994952
0.000995282
0.000995678
0.000996158
0.00099674
0.000997446
0.000998302
0.000999338
0.00100059
0.00100209
0.0010039
0.00100605
0.00100862
0.00101167
0.00101526
0.00101948
0.00102443
0.0010302
0.0010369
0.00104469
0.0010537
0.00106415
0.00107624
0.00109026
0.00110652
0.00112536
0.00114718
0.00117238
0.00120136
0.00123451
0.0012721
0.00131455
0.00136194
0.0014144
0.00147197
0.00153462
0.0016023
0.00167486
0.00175206
0.00183352
0.0019187
0.00200694
0.00209753
0.00218984
0.00228339
0.00237786
0.00247308
0.00256891
0.00266514
0.00276141
0.00285719
0.00295186
0.00304479
0.00313544
0.00322345
0.00330857
0.0033907
0.00346973
0.00354556
0.00361806
0.00368711
0.00375269
0.00381496
0.00387434
0.00393143
0.00398699
0.00404176
0.00409623
0.00415053
0.00420437
0.00425702
0.00430756
0.00435505
0.00439894
0.00443791
0.00447239
0.00450279
0.00452983
0.00455441
0.00457737
0.00459945
0.00462113
0.00464261
0.00466386
0.00468466
0.00470471
0.0047237
0.0047414
0.00475765
0.00477239
0.00478566
0.00479753
0.00480814
0.00481768
0.00482633
0.00483429
0.00484175
0.00484882
0.00485557
0.00486201
0.00486807
0.00487368
0.00487873
0.00488315
0.00488688
0.00488991
0.00489225
0.00489394
0.00489501
0.00489551
0.0048955
0.00489501
0.00489408
0.00489275
0.00489105
0.00488901
0.00488666
0.00488402
0.00488108
0.00487786
0.00487434
0.00487052
0.00486639
0.00486194
0.00485716
0.00485204
0.00484659
0.00484082
0.00483474
0.00482838
0.00482176
0.00481487
0.00480774
0.00480039
0.00479283
0.00478506
0.0047771
0.00476894
0.0047606
0.00475208
0.0047434
0.00473456
0.00472558
0.00471649
0.00470729
0.00469804
0.00468877
0.00467952
0.00467036
0.00466133
0.0046525
0.00464393
0.00463566
0.00462774
0.00462018
0.004613
0.00460619
0.00459974
0.00459363
0.00458781
0.00458229
0.00457705
0.00457212
0.00456756
0.00456346
0.00455997
0.00455734
0.00455586
0.00455596
0.00455816
0.00456314
0.00457173
0.0045849
0.00460384
0.00462979
0.00466427
0.00470864
0.00476478
0.00483043
0.000976685
0.000976578
0.000976521
0.000976504
0.000976516
0.000976551
0.000976603
0.00097667
0.000976748
0.000976837
0.000976935
0.000977043
0.00097716
0.000977289
0.000977431
0.000977588
0.000977764
0.000977965
0.000978195
0.000978464
0.000978779
0.000979154
0.000979603
0.000980142
0.000980791
0.000981573
0.000982515
0.000983647
0.000985004
0.000986627
0.00098856
0.000990857
0.000993578
0.000996791
0.00100057
0.00100501
0.0010102
0.00101625
0.00102329
0.00103147
0.00104096
0.00105197
0.00106473
0.00107953
0.00109667
0.00111651
0.0011394
0.0011657
0.00119576
0.00122989
0.00126835
0.00131124
0.00135883
0.00141103
0.00146781
0.0015291
0.00159479
0.00166475
0.00173881
0.00181671
0.00189805
0.00198233
0.00206896
0.00215737
0.00224708
0.00233776
0.00242925
0.00252147
0.00261432
0.00270762
0.00280101
0.00289396
0.00298587
0.00307615
0.0031643
0.00324998
0.00333298
0.00341316
0.00349042
0.00356464
0.00363567
0.00370338
0.00376774
0.00382892
0.00388729
0.00394348
0.00399821
0.0040522
0.00410591
0.00415949
0.0042126
0.00426457
0.00431446
0.00436135
0.00440472
0.00444324
0.00447735
0.00450744
0.00453424
0.00455861
0.00458139
0.00460329
0.00462478
0.00464607
0.00466711
0.00468771
0.00470755
0.00472635
0.00474387
0.00475996
0.00477456
0.0047877
0.00479945
0.00480996
0.00481939
0.00482795
0.00483582
0.00484318
0.00485016
0.00485682
0.00486316
0.00486913
0.00487464
0.00487961
0.00488395
0.00488761
0.00489058
0.00489287
0.0048945
0.00489553
0.004896
0.00489594
0.00489542
0.00489445
0.00489309
0.00489136
0.0048893
0.00488692
0.00488425
0.00488128
0.00487803
0.00487449
0.00487065
0.0048665
0.00486202
0.00485722
0.0048521
0.00484663
0.00484084
0.00483476
0.00482839
0.00482176
0.00481487
0.00480774
0.00480038
0.00479281
0.00478504
0.00477707
0.00476892
0.00476057
0.00475206
0.00474337
0.00473454
0.00472556
0.00471646
0.00470727
0.00469802
0.00468874
0.00467949
0.00467032
0.00466129
0.00465245
0.00464386
0.00463558
0.00462763
0.00462004
0.00461283
0.00460599
0.00459951
0.00459335
0.0045875
0.00458193
0.00457665
0.00457168
0.00456707
0.00456292
0.00455938
0.00455668
0.00455513
0.00455514
0.00455723
0.00456207
0.00457048
0.00458343
0.00460209
0.00462769
0.00466176
0.00470561
0.00476116
0.00482616
0.000958508
0.00095844
0.000958427
0.000958454
0.00095851
0.000958586
0.000958679
0.000958785
0.000958901
0.000959028
0.000959164
0.00095931
0.000959467
0.000959638
0.000959826
0.000960035
0.00096027
0.000960538
0.000960849
0.000961213
0.000961644
0.000962156
0.000962769
0.000963504
0.000964384
0.000965437
0.000966694
0.000968191
0.000969969
0.000972074
0.000974562
0.000977494
0.000980946
0.000985003
0.000989764
0.000995343
0.00100187
0.00100949
0.00101838
0.00102872
0.00104075
0.00105471
0.00107088
0.00108957
0.0011111
0.00113578
0.00116391
0.00119577
0.00123158
0.00127152
0.00131566
0.00136399
0.00141658
0.00147325
0.00153386
0.00159828
0.00166636
0.00173796
0.0018129
0.0018909
0.0019716
0.00205451
0.00213914
0.00222501
0.0023118
0.00239933
0.00248755
0.00257647
0.00266605
0.0027561
0.00284626
0.00293603
0.00302484
0.00311212
0.00319744
0.00328048
0.00336104
0.00343899
0.00351422
0.00358658
0.00365592
0.00372208
0.00378503
0.00384493
0.00390215
0.00395728
0.00401105
0.00406413
0.00411699
0.00416972
0.00422201
0.00427319
0.00432233
0.00436853
0.0044113
0.00444932
0.004483
0.00451274
0.00453926
0.00456339
0.00458597
0.00460766
0.00462894
0.00465
0.00467081
0.00469117
0.00471079
0.00472937
0.00474668
0.00476259
0.00477702
0.00479001
0.00480163
0.00481202
0.00482134
0.00482979
0.00483756
0.00484481
0.00485168
0.00485823
0.00486446
0.00487033
0.00487574
0.00488061
0.00488486
0.00488845
0.00489135
0.00489357
0.00489515
0.00489612
0.00489654
0.00489645
0.00489588
0.00489488
0.00489348
0.00489172
0.00488962
0.00488721
0.0048845
0.00488151
0.00487823
0.00487466
0.00487079
0.00486661
0.00486212
0.0048573
0.00485215
0.00484667
0.00484087
0.00483477
0.0048284
0.00482176
0.00481486
0.00480772
0.00480036
0.00479279
0.00478502
0.00477705
0.00476888
0.00476054
0.00475202
0.00474334
0.00473451
0.00472553
0.00471643
0.00470724
0.00469799
0.00468871
0.00467946
0.00467028
0.00466124
0.00465238
0.00464378
0.00463547
0.00462749
0.00461988
0.00461263
0.00460576
0.00459923
0.00459303
0.00458713
0.00458152
0.00457619
0.00457117
0.0045665
0.00456229
0.00455869
0.00455592
0.00455428
0.00455418
0.00455615
0.00456082
0.00456903
0.00458173
0.00460006
0.00462528
0.00465885
0.00470212
0.00475697
0.00482122
0.000938958
0.000938954
0.000938996
0.000939073
0.000939171
0.000939288
0.000939419
0.000939562
0.000939717
0.000939882
0.000940058
0.000940246
0.000940449
0.00094067
0.000940914
0.000941188
0.000941499
0.000941859
0.000942279
0.000942775
0.000943364
0.000944067
0.000944906
0.000945907
0.000947098
0.000948513
0.000950187
0.000952163
0.000954489
0.000957223
0.000960434
0.000964207
0.000968643
0.000973859
0.000979996
0.000987212
0.000995688
0.00100562
0.00101723
0.00103076
0.00104646
0.0010646
0.00108544
0.00110927
0.00113632
0.00116683
0.00120099
0.00123892
0.00128072
0.00132641
0.00137594
0.00142916
0.00148607
0.0015464
0.00160998
0.00167667
0.00174633
0.00181882
0.00189398
0.00197153
0.00205111
0.00213229
0.00221463
0.00229776
0.00238149
0.00246575
0.00255061
0.00263615
0.00272233
0.00280899
0.00289577
0.00298219
0.00306769
0.00315179
0.00323406
0.00331425
0.00339217
0.00346769
0.00354068
0.003611
0.00367845
0.00374289
0.00380428
0.00386275
0.00391869
0.00397265
0.00402534
0.00407741
0.00412929
0.00418108
0.00423246
0.00428276
0.00433106
0.00437651
0.00441861
0.00445606
0.00448926
0.00451862
0.00454482
0.0045687
0.00459103
0.0046125
0.00463354
0.00465435
0.00467491
0.004695
0.00471436
0.0047327
0.00474979
0.0047655
0.00477975
0.00479258
0.00480405
0.00481431
0.00482351
0.00483183
0.00483948
0.00484662
0.00485337
0.0048598
0.00486591
0.00487166
0.00487696
0.00488172
0.00488588
0.00488937
0.00489219
0.00489435
0.00489586
0.00489678
0.00489714
0.004897
0.00489639
0.00489535
0.00489391
0.00489211
0.00488997
0.00488752
0.00488478
0.00488175
0.00487844
0.00487484
0.00487094
0.00486673
0.00486221
0.00485737
0.00485221
0.00484671
0.00484089
0.00483478
0.00482839
0.00482175
0.00481484
0.0048077
0.00480033
0.00479276
0.00478498
0.00477701
0.00476884
0.0047605
0.00475198
0.0047433
0.00473446
0.00472549
0.00471639
0.0047072
0.00469795
0.00468867
0.00467941
0.00467023
0.00466117
0.00465231
0.00464368
0.00463535
0.00462734
0.00461969
0.00461241
0.00460548
0.00459891
0.00459266
0.00458671
0.00458105
0.00457566
0.00457058
0.00456586
0.00456158
0.00455791
0.00455506
0.00455332
0.0045531
0.00455491
0.00455941
0.00456739
0.0045798
0.00459777
0.00462254
0.00465556
0.00469816
0.00475223
0.00481564
0.000918142
0.000918129
0.000918171
0.000918256
0.00091837
0.000918508
0.000918667
0.000918843
0.000919033
0.000919238
0.000919457
0.000919693
0.000919949
0.000920232
0.000920548
0.000920908
0.000921323
0.000921808
0.00092238
0.000923059
0.000923868
0.000924832
0.000925979
0.00092734
0.00092895
0.000930845
0.000933072
0.000935681
0.000938737
0.000942318
0.000946524
0.000951475
0.00095732
0.000964231
0.000972406
0.000982065
0.00099344
0.00100677
0.00102231
0.00104029
0.00106094
0.00108448
0.00111111
0.00114098
0.00117423
0.00121097
0.00125124
0.00129505
0.00134238
0.00139314
0.00144721
0.00150438
0.00156458
0.00162755
0.00169312
0.00176116
0.00183158
0.00190426
0.00197903
0.00205565
0.00213374
0.00221292
0.00229279
0.00237311
0.00245375
0.00253478
0.00261634
0.00269853
0.00278136
0.00286465
0.00294804
0.00303107
0.00311322
0.00319406
0.00327322
0.00335046
0.00342563
0.0034986
0.00356925
0.00363739
0.00370285
0.00376545
0.00382515
0.0038821
0.00393664
0.00398934
0.00404086
0.00409182
0.00414265
0.00419342
0.0042438
0.00429313
0.00434054
0.00438516
0.00442654
0.00446337
0.00449605
0.00452499
0.00455086
0.00457444
0.00459653
0.00461774
0.00463852
0.00465907
0.00467934
0.00469916
0.00471824
0.00473631
0.00475316
0.00476865
0.00478271
0.00479536
0.00480668
0.00481679
0.00482585
0.00483405
0.00484158
0.00484859
0.00485521
0.00486151
0.00486749
0.0048731
0.00487828
0.00488292
0.00488697
0.00489037
0.00489311
0.00489518
0.00489663
0.00489749
0.00489779
0.0048976
0.00489694
0.00489585
0.00489437
0.00489253
0.00489035
0.00488786
0.00488508
0.00488201
0.00487866
0.00487503
0.00487109
0.00486686
0.00486231
0.00485744
0.00485226
0.00484674
0.0048409
0.00483477
0.00482838
0.00482173
0.00481481
0.00480766
0.00480029
0.00479271
0.00478493
0.00477696
0.00476879
0.00476045
0.00475193
0.00474325
0.00473441
0.00472544
0.00471634
0.00470715
0.0046979
0.00468862
0.00467936
0.00467016
0.0046611
0.00465221
0.00464357
0.0046352
0.00462717
0.00461948
0.00461215
0.00460518
0.00459855
0.00459225
0.00458624
0.00458052
0.00457507
0.00456993
0.00456513
0.00456079
0.00455703
0.00455408
0.00455224
0.00455189
0.00455354
0.00455783
0.00456555
0.00457764
0.00459521
0.00461948
0.00465189
0.00469375
0.00474694
0.00480941
0.000895617
0.000895507
0.000895505
0.000895577
0.0008957
0.000895862
0.000896053
0.000896267
0.0008965
0.000896751
0.000897022
0.000897317
0.000897642
0.000898005
0.000898419
0.000898896
0.000899455
0.000900115
0.000900898
0.000901832
0.000902945
0.000904267
0.000905834
0.000907683
0.000909857
0.000912405
0.000915385
0.000918872
0.000922958
0.000927761
0.00093343
0.000940148
0.000948128
0.000957611
0.000968855
0.000982124
0.000997672
0.00101573
0.0010365
0.00106016
0.00108683
0.00111661
0.00114958
0.00118576
0.00122518
0.0012678
0.0013136
0.00136249
0.00141439
0.00146916
0.00152665
0.00158663
0.00164902
0.00171359
0.00178021
0.00184878
0.00191924
0.0019915
0.00206541
0.00214071
0.00221705
0.00229405
0.00237139
0.00244888
0.00252652
0.00260444
0.00268283
0.00276184
0.00284145
0.00292149
0.0030016
0.00308133
0.00316021
0.00323783
0.0033139
0.00338821
0.00346063
0.00353103
0.00359928
0.0036652
0.0037286
0.0037893
0.00384726
0.0039026
0.00395569
0.00400705
0.00405733
0.00410713
0.00415684
0.00420652
0.00425584
0.00430415
0.00435059
0.00439434
0.00443495
0.00447113
0.00450327
0.00453176
0.00455727
0.00458056
0.00460237
0.00462332
0.00464383
0.00466408
0.00468406
0.00470357
0.00472236
0.00474015
0.00475674
0.004772
0.00478585
0.00479831
0.00480947
0.00481943
0.00482835
0.00483642
0.00484381
0.00485069
0.00485717
0.00486333
0.00486917
0.00487464
0.00487969
0.00488421
0.00488814
0.00489144
0.00489408
0.00489607
0.00489744
0.00489823
0.00489848
0.00489823
0.00489752
0.00489638
0.00489485
0.00489296
0.00489074
0.00488821
0.00488539
0.00488228
0.00487889
0.00487522
0.00487125
0.00486698
0.0048624
0.00485751
0.0048523
0.00484676
0.0048409
0.00483476
0.00482836
0.00482169
0.00481477
0.00480762
0.00480024
0.00479266
0.00478487
0.00477689
0.00476873
0.00476038
0.00475186
0.00474318
0.00473435
0.00472538
0.00471628
0.00470709
0.00469784
0.00468855
0.00467929
0.00467009
0.00466101
0.0046521
0.00464343
0.00463504
0.00462697
0.00461923
0.00461186
0.00460483
0.00459815
0.00459179
0.00458572
0.00457993
0.00457441
0.0045692
0.00456433
0.0045599
0.00455606
0.00455301
0.00455104
0.00455055
0.00455202
0.00455608
0.00456352
0.00457526
0.00459239
0.00461611
0.00464785
0.00468889
0.00474112
0.00480256
0.000870307
0.000870241
0.000870295
0.000870425
0.000870605
0.000870823
0.00087107
0.000871339
0.000871629
0.00087194
0.000872278
0.00087265
0.000873066
0.00087354
0.000874088
0.000874731
0.000875493
0.000876398
0.000877479
0.000878767
0.0008803
0.000882118
0.000884266
0.000886794
0.000889763
0.000893243
0.000897324
0.000902119
0.000907771
0.00091446
0.000922405
0.000931857
0.000943096
0.000956408
0.000972072
0.000990335
0.0010114
0.0010354
0.00106243
0.00109251
0.00112565
0.00116181
0.00120093
0.00124295
0.0012878
0.0013354
0.00138566
0.00143848
0.00149375
0.00155134
0.00161109
0.00167278
0.00173636
0.00180163
0.00186849
0.00193691
0.00200685
0.00207823
0.00215091
0.00222463
0.00229903
0.00237377
0.00244857
0.00252333
0.0025981
0.00267309
0.00274851
0.00282453
0.00290113
0.00297812
0.00305513
0.00313173
0.00320749
0.00328204
0.00335514
0.00342661
0.00349634
0.00356422
0.00363011
0.00369383
0.00375516
0.00381396
0.00387015
0.00392388
0.00397548
0.00402547
0.00407449
0.00412308
0.00417163
0.00422017
0.00426838
0.00431562
0.00436107
0.0044039
0.00444372
0.00447922
0.00451079
0.00453882
0.00456396
0.00458694
0.00460847
0.00462915
0.00464937
0.00466932
0.00468898
0.00470818
0.00472666
0.00474416
0.00476048
0.00477549
0.00478913
0.0048014
0.00481239
0.00482219
0.00483097
0.0048389
0.00484615
0.00485289
0.00485923
0.00486524
0.00487093
0.00487626
0.00488116
0.00488555
0.00488936
0.00489255
0.00489509
0.004897
0.00489829
0.00489901
0.0048992
0.00489889
0.00489812
0.00489693
0.00489535
0.00489341
0.00489115
0.00488857
0.0048857
0.00488255
0.00487912
0.00487541
0.0048714
0.0048671
0.00486249
0.00485757
0.00485233
0.00484677
0.00484089
0.00483473
0.00482832
0.00482164
0.00481472
0.00480755
0.00480017
0.00479258
0.00478479
0.00477681
0.00476864
0.0047603
0.00475178
0.0047431
0.00473427
0.0047253
0.00471621
0.00470702
0.00469776
0.00468848
0.0046792
0.00466999
0.0046609
0.00465198
0.00464328
0.00463485
0.00462674
0.00461896
0.00461153
0.00460445
0.00459771
0.00459128
0.00458514
0.00457928
0.00457369
0.0045684
0.00456345
0.00455894
0.00455499
0.00455183
0.00454973
0.00454908
0.00455035
0.00455418
0.00456131
0.00457266
0.00458931
0.00461243
0.00464345
0.0046836
0.00473478
0.00479509
0.000841788
0.000841876
0.000842055
0.000842286
0.000842549
0.000842839
0.000843152
0.000843485
0.000843842
0.000844227
0.00084465
0.000845124
0.000845666
0.000846295
0.000847035
0.000847914
0.000848964
0.000850219
0.000851719
0.00085351
0.000855641
0.00085817
0.000861164
0.000864702
0.000868876
0.0008738
0.000879614
0.000886491
0.000894639
0.000904304
0.000915762
0.000929309
0.000945236
0.000963812
0.000985251
0.0010097
0.00103723
0.00106782
0.00110142
0.00113792
0.00117718
0.00121907
0.00126349
0.00131031
0.00135943
0.00141078
0.00146425
0.00151977
0.00157723
0.00163652
0.00169749
0.00175996
0.00182389
0.00188913
0.00195562
0.00202337
0.00209237
0.00216256
0.00223377
0.00230574
0.00237813
0.0024506
0.00252292
0.00259506
0.00266714
0.0027394
0.00281209
0.00288536
0.00295919
0.00303335
0.00310748
0.00318118
0.00325402
0.00332571
0.00339602
0.00346481
0.003532
0.00359747
0.00366109
0.00372267
0.003782
0.00383892
0.00389338
0.00394551
0.00399564
0.00404427
0.004092
0.00413938
0.00418675
0.00423413
0.00428121
0.00432736
0.00437177
0.00441368
0.00445269
0.00448751
0.0045185
0.00454606
0.00457083
0.0045935
0.00461474
0.00463514
0.00465507
0.00467471
0.00469405
0.00471292
0.00473107
0.00474828
0.00476432
0.00477908
0.0047925
0.00480458
0.00481539
0.00482504
0.00483367
0.00484146
0.00484857
0.00485516
0.00486136
0.00486722
0.00487275
0.00487793
0.00488268
0.00488694
0.00489062
0.00489369
0.00489613
0.00489795
0.00489916
0.00489981
0.00489992
0.00489955
0.00489873
0.00489748
0.00489585
0.00489387
0.00489155
0.00488893
0.00488601
0.00488282
0.00487934
0.00487558
0.00487154
0.0048672
0.00486256
0.00485761
0.00485235
0.00484676
0.00484086
0.00483468
0.00482826
0.00482158
0.00481464
0.00480747
0.00480008
0.00479249
0.0047847
0.00477671
0.00476854
0.0047602
0.00475168
0.004743
0.00473417
0.0047252
0.00471611
0.00470693
0.00469767
0.00468838
0.0046791
0.00466988
0.00466077
0.00465183
0.00464311
0.00463465
0.00462649
0.00461866
0.00461118
0.00460403
0.00459722
0.00459072
0.00458451
0.00457857
0.0045729
0.00456753
0.00456249
0.00455788
0.00455384
0.00455055
0.00454831
0.00454749
0.00454855
0.00455211
0.00455891
0.00456985
0.00458598
0.00460846
0.00463868
0.00467788
0.00472794
0.00478704
0.000810009
0.000810136
0.000810359
0.000810632
0.00081094
0.000811278
0.000811645
0.000812041
0.000812471
0.000812947
0.000813483
0.000814099
0.00081482
0.000815673
0.000816693
0.000817917
0.000819387
0.000821153
0.000823273
0.000825813
0.000828854
0.000832487
0.000836823
0.000841988
0.000848131
0.000855423
0.000864061
0.000874269
0.000886297
0.000900414
0.000916896
0.000936002
0.000957958
0.000982923
0.00101098
0.00104212
0.00107626
0.00111325
0.0011529
0.001195
0.00123937
0.00128584
0.00133429
0.00138461
0.00143672
0.00149055