/*--------------------------------*- C++ -*----------------------------------*\
| =========                 |                                                 |
| \\      /  F ield         | OpenFOAM: The Open Source CFD Toolbox           |
|  \\    /   O peration     | Version:  1.7.x                                 |
|   \\  /    A nd           | Web:      www.OpenFOAM.com                      |
|    \\/     M anipulation  |                                                 |
\*---------------------------------------------------------------------------*/
FoamFile
{
    version     2.0;
    format      ascii;
    class       surfaceScalarField;
    location    "1800";
    object      phi;
}
// * * * * * * * * * * * * * * * * * * * * * * * * * * * * * * * * * * * * * //

dimensions      [1 0 -1 0 0 0 0];

internalField   nonuniform List<scalar> 
29326
(
5.4899e-08
4.1196e-12
5.48915e-08
7.51567e-12
5.4882e-08
9.45954e-12
5.48721e-08
9.91337e-12
5.48625e-08
9.65814e-12
5.48534e-08
9.10084e-12
5.4845e-08
8.36772e-12
5.48374e-08
7.57061e-12
5.48306e-08
6.80218e-12
5.48245e-08
6.09902e-12
5.4819e-08
5.46609e-12
5.48141e-08
4.90197e-12
5.48097e-08
4.40455e-12
5.48058e-08
3.97018e-12
5.48022e-08
3.5936e-12
5.47989e-08
3.26844e-12
5.47959e-08
2.98797e-12
5.47932e-08
2.74573e-12
5.47906e-08
2.53662e-12
5.47883e-08
2.35717e-12
5.47861e-08
2.20448e-12
5.4784e-08
2.07542e-12
5.4782e-08
1.96665e-12
5.47802e-08
1.87502e-12
5.47784e-08
1.79818e-12
5.47766e-08
1.73521e-12
5.47749e-08
1.68645e-12
5.47733e-08
1.65241e-12
5.47717e-08
1.63331e-12
5.477e-08
1.62918e-12
5.47684e-08
1.6403e-12
5.47667e-08
1.66786e-12
5.4765e-08
1.71463e-12
5.47632e-08
1.78421e-12
5.47613e-08
1.88035e-12
5.47593e-08
2.00677e-12
5.47572e-08
2.16772e-12
5.47548e-08
2.36845e-12
5.47522e-08
2.61602e-12
5.47493e-08
2.91946e-12
5.4746e-08
3.28914e-12
5.47422e-08
3.73657e-12
5.4738e-08
4.27497e-12
5.4733e-08
4.92004e-12
5.47273e-08
5.69105e-12
5.47207e-08
6.61191e-12
5.4713e-08
7.71082e-12
5.4704e-08
9.02082e-12
5.46934e-08
1.05811e-11
5.4681e-08
1.24387e-11
5.46663e-08
1.46509e-11
5.4649e-08
1.72873e-11
5.46286e-08
2.0432e-11
5.46044e-08
2.41851e-11
5.45758e-08
2.86671e-11
5.45417e-08
3.40223e-11
5.45013e-08
4.04234e-11
5.44532e-08
4.80754e-11
5.4396e-08
5.72176e-11
5.43279e-08
6.81248e-11
5.42468e-08
8.11061e-11
5.41503e-08
9.6499e-11
5.40356e-08
1.14656e-10
5.38997e-08
1.35922e-10
5.37391e-08
1.60595e-10
5.35502e-08
1.88882e-10
5.33294e-08
2.2084e-10
5.30731e-08
2.56316e-10
5.27782e-08
2.94902e-10
5.24423e-08
3.35918e-10
5.20638e-08
3.7844e-10
5.16425e-08
4.21366e-10
5.11789e-08
4.63529e-10
5.06751e-08
5.03813e-10
5.01339e-08
5.41254e-10
4.95587e-08
5.75112e-10
4.89538e-08
6.04903e-10
4.83234e-08
6.30398e-10
4.76719e-08
6.5159e-10
4.70032e-08
6.6866e-10
4.63213e-08
6.81938e-10
4.56294e-08
6.9187e-10
4.49304e-08
6.99006e-10
4.42264e-08
7.03975e-10
4.35189e-08
7.07469e-10
4.28087e-08
7.10197e-10
4.20959e-08
7.12811e-10
4.13801e-08
7.15792e-10
4.06608e-08
7.19323e-10
3.99376e-08
7.2318e-10
3.92109e-08
7.26692e-10
3.84822e-08
7.28788e-10
3.7754e-08
7.28164e-10
3.70305e-08
7.23513e-10
3.63167e-08
7.13795e-10
3.56182e-08
6.98479e-10
3.49405e-08
6.777e-10
3.42882e-08
6.52289e-10
3.36646e-08
6.23664e-10
3.3071e-08
5.9359e-10
3.25071e-08
5.63858e-10
3.19711e-08
5.35981e-10
3.14601e-08
5.10971e-10
3.09709e-08
4.8927e-10
3.05001e-08
4.70812e-10
3.00449e-08
4.55186e-10
2.96031e-08
4.41821e-10
2.91729e-08
4.30134e-10
2.87533e-08
4.19631e-10
2.83434e-08
4.09935e-10
2.79426e-08
4.00791e-10
2.75505e-08
3.92037e-10
2.7167e-08
3.83574e-10
2.67916e-08
3.7535e-10
2.64243e-08
3.67333e-10
2.60648e-08
3.59506e-10
2.57129e-08
3.51856e-10
2.53685e-08
3.44373e-10
2.50315e-08
3.37044e-10
2.47016e-08
3.29854e-10
2.43789e-08
3.2278e-10
2.40631e-08
3.15795e-10
2.37542e-08
3.08867e-10
2.34522e-08
3.01963e-10
2.31572e-08
2.95053e-10
2.28691e-08
2.88122e-10
2.25879e-08
2.81179e-10
2.23136e-08
2.74269e-10
2.20461e-08
2.6748e-10
2.17852e-08
2.60945e-10
2.15303e-08
2.54844e-10
2.1281e-08
2.49392e-10
2.10361e-08
2.44828e-10
2.07947e-08
2.41403e-10
2.05554e-08
2.39372e-10
2.03164e-08
2.3899e-10
2.00759e-08
2.40509e-10
1.98317e-08
2.44181e-10
1.95814e-08
2.50266e-10
1.93224e-08
2.59031e-10
1.90516e-08
2.70738e-10
1.8766e-08
2.85624e-10
1.84622e-08
3.03841e-10
1.81368e-08
3.25374e-10
1.77869e-08
3.49902e-10
1.74102e-08
3.76645e-10
1.7006e-08
4.04214e-10
1.65755e-08
4.30576e-10
1.61222e-08
4.5325e-10
1.56524e-08
4.69771e-10
1.51741e-08
4.78359e-10
1.46956e-08
4.78474e-10
1.42246e-08
4.70972e-10
1.37669e-08
4.57745e-10
1.33258e-08
4.41077e-10
1.29028e-08
4.2303e-10
1.24977e-08
4.05093e-10
1.21096e-08
3.88111e-10
1.17372e-08
3.72411e-10
1.13792e-08
3.57968e-10
1.10346e-08
3.44572e-10
1.07027e-08
3.31941e-10
1.03829e-08
3.19785e-10
1.00751e-08
3.0784e-10
9.77918e-09
2.95882e-10
9.49544e-09
2.83732e-10
9.22419e-09
2.7125e-10
8.96586e-09
2.58339e-10
8.72091e-09
2.44941e-10
8.48988e-09
2.31038e-10
8.27322e-09
2.16653e-10
8.07137e-09
2.01852e-10
7.88463e-09
1.86746e-10
7.71314e-09
1.71487e-10
7.55688e-09
1.56261e-10
7.4156e-09
1.41279e-10
7.28884e-09
1.26761e-10
7.17593e-09
1.12912e-10
7.07602e-09
9.99101e-11
6.98813e-09
8.78878e-11
6.9112e-09
7.69269e-11
6.84414e-09
6.70578e-11
6.78588e-09
5.82662e-11
6.73538e-09
5.05014e-11
6.69169e-09
4.36909e-11
6.65394e-09
3.77446e-11
6.62137e-09
3.25753e-11
6.59328e-09
2.80827e-11
6.56908e-09
2.42013e-11
6.54826e-09
2.08202e-11
6.53032e-09
1.79442e-11
6.51493e-09
1.53913e-11
6.50155e-09
1.33795e-11
6.49012e-09
1.1423e-11
6.47968e-09
1.04424e-11
6.47081e-09
8.87245e-12
6.46104e-09
9.77148e-12
6.45273e-09
8.30396e-12
6.44089e-09
1.18451e-11
1.00248e-11
1.64697e-07
1.64945e-11
1.64674e-07
3.0552e-11
1.64645e-07
3.79716e-11
1.64616e-07
3.96681e-11
1.64587e-07
3.86624e-11
1.64559e-07
3.64315e-11
1.64534e-07
3.34741e-11
1.64512e-07
3.02738e-11
1.64491e-07
2.7201e-11
1.64473e-07
2.43901e-11
1.64456e-07
2.18588e-11
1.64442e-07
1.96032e-11
1.64429e-07
1.76148e-11
1.64417e-07
1.58787e-11
1.64406e-07
1.43738e-11
1.64396e-07
1.30747e-11
1.64387e-07
1.19542e-11
1.64379e-07
1.09866e-11
1.64371e-07
1.01515e-11
1.64364e-07
9.43539e-12
1.64358e-07
8.8268e-12
1.64351e-07
8.31322e-12
1.64345e-07
7.88138e-12
1.6434e-07
7.51888e-12
1.64334e-07
7.21646e-12
1.64329e-07
6.97077e-12
1.64324e-07
6.7836e-12
1.64319e-07
6.65739e-12
1.64314e-07
6.59331e-12
1.64309e-07
6.59187e-12
1.64304e-07
6.65473e-12
1.64299e-07
6.78716e-12
1.64294e-07
7.00109e-12
1.64288e-07
7.31182e-12
1.64282e-07
7.73517e-12
1.64276e-07
8.28703e-12
1.64269e-07
8.98563e-12
1.64262e-07
9.85326e-12
1.64253e-07
1.09199e-11
1.64244e-07
1.22238e-11
1.64234e-07
1.38086e-11
1.64222e-07
1.57229e-11
1.64208e-07
1.80227e-11
1.64192e-07
2.07744e-11
1.64174e-07
2.40594e-11
1.64152e-07
2.79783e-11
1.64127e-07
3.265e-11
1.64098e-07
3.8213e-11
1.64064e-07
4.48323e-11
1.64024e-07
5.27045e-11
1.63976e-07
6.20691e-11
1.6392e-07
7.32162e-11
1.63854e-07
8.6494e-11
1.63776e-07
1.02316e-10
1.63684e-07
1.21177e-10
1.63574e-07
1.43666e-10
1.63444e-07
1.70483e-10
1.63289e-07
2.02452e-10
1.63106e-07
2.40525e-10
1.62888e-07
2.85785e-10
1.6263e-07
3.39433e-10
1.62324e-07
4.02762e-10
1.61961e-07
4.77097e-10
1.61534e-07
5.63694e-10
1.61031e-07
6.63599e-10
1.60442e-07
7.77465e-10
1.59758e-07
9.05335e-10
1.58967e-07
1.04645e-09
1.58063e-07
1.1991e-09
1.57039e-07
1.36057e-09
1.5589e-07
1.5273e-09
1.54616e-07
1.69511e-09
1.5322e-07
1.85962e-09
1.51707e-07
2.01666e-09
1.50086e-07
2.16264e-09
1.48366e-07
2.29478e-09
1.4656e-07
2.41125e-09
1.44679e-07
2.51114e-09
1.42736e-07
2.59441e-09
1.40743e-07
2.66172e-09
1.38711e-07
2.7143e-09
1.36649e-07
2.75385e-09
1.34565e-07
2.78249e-09
1.32467e-07
2.80267e-09
1.30357e-07
2.81709e-09
1.28239e-07
2.82853e-09
1.26112e-07
2.83956e-09
1.23976e-07
2.85206e-09
1.21828e-07
2.86674e-09
1.19669e-07
2.88269e-09
1.17498e-07
2.89722e-09
1.15321e-07
2.90607e-09
1.13145e-07
2.90402e-09
1.10983e-07
2.88587e-09
1.08849e-07
2.84748e-09
1.06761e-07
2.78673e-09
1.04734e-07
2.70416e-09
1.02783e-07
2.60309e-09
1.00918e-07
2.48916e-09
9.91421e-08
2.36942e-09
9.74549e-08
2.25099e-09
9.5851e-08
2.13992e-09
9.43217e-08
2.04026e-09
9.28572e-08
1.95376e-09
9.14478e-08
1.88019e-09
9.00851e-08
1.8179e-09
8.87623e-08
1.76462e-09
8.74744e-08
1.71803e-09
8.62179e-08
1.67616e-09
8.49903e-08
1.63752e-09
8.37901e-08
1.60107e-09
8.26159e-08
1.56617e-09
8.14671e-08
1.53243e-09
8.03428e-08
1.49964e-09
7.92424e-08
1.46768e-09
7.81655e-08
1.43646e-09
7.71114e-08
1.40595e-09
7.60796e-08
1.37611e-09
7.50698e-08
1.34687e-09
7.40815e-08
1.31818e-09
7.31143e-08
1.28996e-09
7.2168e-08
1.26209e-09
7.12425e-08
1.23444e-09
7.03375e-08
1.20688e-09
6.94533e-08
1.17931e-09
6.85898e-08
1.15164e-09
6.7747e-08
1.12393e-09
6.69249e-08
1.09635e-09
6.61232e-08
1.06924e-09
6.5341e-08
1.04315e-09
6.4577e-08
1.01879e-09
6.38294e-08
9.97017e-10
6.30954e-08
9.78786e-10
6.23717e-08
9.65102e-10
6.16541e-08
9.56985e-10
6.09377e-08
9.55448e-10
6.02167e-08
9.61497e-10
5.94847e-08
9.76147e-10
5.87345e-08
1.00043e-09
5.79582e-08
1.03542e-09
5.71467e-08
1.08216e-09
5.62908e-08
1.14159e-09
5.53803e-08
1.21432e-09
5.44054e-08
1.30031e-09
5.3357e-08
1.39827e-09
5.22286e-08
1.50509e-09
5.10175e-08
1.61522e-09
4.97275e-08
1.72058e-09
4.83695e-08
1.81125e-09
4.69619e-08
1.87738e-09
4.55284e-08
1.91185e-09
4.40944e-08
1.9125e-09
4.26827e-08
1.88271e-09
4.13104e-08
1.83002e-09
3.99879e-08
1.76354e-09
3.87195e-08
1.69152e-09
3.75047e-08
1.6199e-09
3.63407e-08
1.55208e-09
3.52237e-08
1.48936e-09
3.415e-08
1.43166e-09
3.31165e-08
1.37814e-09
3.21208e-08
1.32767e-09
3.11614e-08
1.2791e-09
3.02379e-08
1.23138e-09
2.93502e-08
1.1836e-09
2.84989e-08
1.13506e-09
2.76849e-08
1.08519e-09
2.69096e-08
1.03361e-09
2.61745e-08
9.80085e-10
2.5481e-08
9.24536e-10
2.48306e-08
8.67059e-10
2.42245e-08
8.07916e-10
2.36637e-08
7.47546e-10
2.31487e-08
6.86552e-10
2.26792e-08
6.25682e-10
2.22547e-08
5.65776e-10
2.18738e-08
5.07708e-10
2.15344e-08
4.52304e-10
2.1234e-08
4.00275e-10
2.09698e-08
3.52152e-10
2.07384e-08
3.08268e-10
2.05367e-08
2.68745e-10
2.03615e-08
2.33529e-10
2.02096e-08
2.02421e-10
2.00781e-08
1.75132e-10
1.99646e-08
1.51303e-10
1.98665e-08
1.30586e-10
1.97821e-08
1.1258e-10
1.97092e-08
9.70217e-11
1.96466e-08
8.34697e-11
1.95926e-08
7.19401e-11
1.95463e-08
6.17085e-11
1.9506e-08
5.36398e-11
1.94716e-08
4.58019e-11
1.94402e-08
4.18559e-11
1.94135e-08
3.55798e-11
1.93841e-08
3.9135e-11
1.93591e-08
3.33083e-11
1.93236e-08
4.7379e-11
4.023e-11
2.74494e-07
3.76594e-11
2.74455e-07
6.9804e-11
2.74407e-07
8.60888e-11
2.74357e-07
8.956e-11
2.74309e-07
8.71714e-11
2.74263e-07
8.20761e-11
2.74221e-07
7.53479e-11
2.74183e-07
6.81063e-11
2.74149e-07
6.11822e-11
2.74119e-07
5.48574e-11
2.74092e-07
4.9164e-11
2.74067e-07
4.40924e-11
2.74045e-07
3.9623e-11
2.74025e-07
3.5722e-11
2.74007e-07
3.23413e-11
2.73991e-07
2.94237e-11
2.73976e-07
2.69083e-11
2.73962e-07
2.47369e-11
2.73949e-07
2.28641e-11
2.73938e-07
2.12601e-11
2.73927e-07
1.99e-11
2.73916e-07
1.8756e-11
2.73906e-07
1.77988e-11
2.73897e-07
1.70012e-11
2.73888e-07
1.63431e-11
2.73879e-07
1.58182e-11
2.7387e-07
1.54323e-11
2.73862e-07
1.51924e-11
2.73853e-07
1.51026e-11
2.73844e-07
1.51662e-11
2.73836e-07
1.53887e-11
2.73827e-07
1.57847e-11
2.73817e-07
1.6384e-11
2.73807e-07
1.7225e-11
2.73797e-07
1.83468e-11
2.73785e-07
1.97899e-11
2.73773e-07
2.16002e-11
2.73759e-07
2.3834e-11
2.73743e-07
2.65659e-11
2.73725e-07
2.98904e-11
2.73705e-07
3.39154e-11
2.73682e-07
3.87616e-11
2.73656e-07
4.45681e-11
2.73625e-07
5.14994e-11
2.73589e-07
5.97569e-11
2.73548e-07
6.95883e-11
2.73499e-07
8.12852e-11
2.73442e-07
9.51879e-11
2.73375e-07
1.117e-10
2.73297e-07
1.313e-10
2.73204e-07
1.54568e-10
2.73095e-07
1.82202e-10
2.72967e-07
2.15035e-10
2.72815e-07
2.54047e-10
2.72636e-07
3.00399e-10
2.72424e-07
3.55457e-10
2.72174e-07
4.20824e-10
2.71878e-07
4.98359e-10
2.71528e-07
5.90172e-10
2.71115e-07
6.98612e-10
2.70628e-07
8.26221e-10
2.70055e-07
9.75648e-10
2.69383e-07
1.1495e-09
2.68597e-07
1.35009e-09
2.67681e-07
1.57917e-09
2.66621e-07
1.8375e-09
2.65402e-07
2.12454e-09
2.6401e-07
2.43806e-09
2.62435e-07
2.77397e-09
2.6067e-07
3.12636e-09
2.58709e-07
3.48778e-09
2.56554e-07
3.84976e-09
2.5421e-07
4.20358e-09
2.51686e-07
4.54094e-09
2.48994e-07
4.8547e-09
2.4615e-07
5.13925e-09
2.4317e-07
5.39084e-09
2.40074e-07
5.60754e-09
2.36879e-07
5.7891e-09
2.33604e-07
5.93676e-09
2.30265e-07
6.05299e-09
2.26878e-07
6.1413e-09
2.23454e-07
6.20616e-09
2.20004e-07
6.25278e-09
2.16534e-07
6.28702e-09
2.13048e-07
6.31492e-09
2.09545e-07
6.34209e-09
2.06025e-07
6.3726e-09
2.02483e-07
6.40793e-09
1.9892e-07
6.44597e-09
1.95337e-07
6.48063e-09
1.91741e-07
6.50235e-09
1.88145e-07
6.49947e-09
1.84571e-07
6.46035e-09
1.81042e-07
6.37575e-09
1.77588e-07
6.24096e-09
1.74235e-07
6.05723e-09
1.71006e-07
5.83197e-09
1.67917e-07
5.57786e-09
1.64976e-07
5.31061e-09
1.62181e-07
5.04621e-09
1.59523e-07
4.79815e-09
1.56988e-07
4.5755e-09
1.54559e-07
4.38222e-09
1.52222e-07
4.21779e-09
1.49961e-07
4.07856e-09
1.47766e-07
3.95946e-09
1.45629e-07
3.85532e-09
1.43543e-07
3.76173e-09
1.41505e-07
3.67534e-09
1.39513e-07
3.59385e-09
1.37563e-07
3.51583e-09
1.35655e-07
3.44039e-09
1.33788e-07
3.36705e-09
1.3196e-07
3.29553e-09
1.3017e-07
3.22569e-09
1.28419e-07
3.15741e-09
1.26704e-07
3.0906e-09
1.25026e-07
3.02514e-09
1.23384e-07
2.9609e-09
1.21776e-07
2.89768e-09
1.20203e-07
2.83524e-09
1.18664e-07
2.7733e-09
1.17159e-07
2.71156e-09
1.15689e-07
2.64975e-09
1.14253e-07
2.58775e-09
1.12851e-07
2.52563e-09
1.11483e-07
2.46379e-09
1.1015e-07
2.40302e-09
1.08848e-07
2.34452e-09
1.07577e-07
2.28989e-09
1.06333e-07
2.24105e-09
1.05112e-07
2.20014e-09
1.03907e-07
2.16943e-09
1.02713e-07
2.15119e-09
1.01521e-07
2.1477e-09
1.00321e-07
2.16123e-09
9.91033e-08
2.19405e-09
9.78553e-08
2.24849e-09
9.65638e-08
2.32694e-09
9.52142e-08
2.43175e-09
9.37907e-08
2.56504e-09
9.22769e-08
2.72819e-09
9.06561e-08
2.92109e-09
8.89135e-08
3.14089e-09
8.70379e-08
3.38061e-09
8.50253e-08
3.62788e-09
8.28813e-08
3.86454e-09
8.06242e-08
4.06838e-09
7.82842e-08
4.21732e-09
7.59007e-08
4.29534e-09
7.35158e-08
4.29748e-09
7.11672e-08
4.23127e-09
6.88837e-08
4.11356e-09
6.66824e-08
3.96477e-09
6.45706e-08
3.80337e-09
6.25477e-08
3.64276e-09
6.06092e-08
3.49059e-09
5.87487e-08
3.34982e-09
5.69601e-08
3.22028e-09
5.52381e-08
3.10011e-09
5.3579e-08
2.98679e-09
5.19804e-08
2.87774e-09
5.04412e-08
2.77058e-09
4.89614e-08
2.66333e-09
4.75422e-08
2.55434e-09
4.6185e-08
2.44239e-09
4.4892e-08
2.32659e-09
4.36657e-08
2.20641e-09
4.25085e-08
2.08168e-09
4.1423e-08
1.95261e-09
4.04111e-08
1.81978e-09
3.94745e-08
1.68416e-09
3.86139e-08
1.54711e-09
3.78293e-08
1.41029e-09
3.71195e-08
1.27559e-09
3.64822e-08
1.14497e-09
3.59143e-08
1.02028e-09
3.54114e-08
9.03132e-10
3.49688e-08
7.94729e-10
3.45813e-08
6.95828e-10
3.42433e-08
6.06718e-10
3.39495e-08
5.2729e-10
3.36949e-08
4.57104e-10
3.34745e-08
3.95518e-10
3.3284e-08
3.41729e-10
3.31197e-08
2.94955e-10
3.2978e-08
2.54298e-10
3.28558e-08
2.19165e-10
3.27507e-08
1.88561e-10
3.26601e-08
1.6252e-10
3.25824e-08
1.39414e-10
3.25149e-08
1.21183e-10
3.24572e-08
1.03484e-10
3.24045e-08
9.45416e-11
3.23597e-08
8.03779e-11
3.23105e-08
8.83165e-11
3.22687e-08
7.51989e-11
3.22092e-08
1.06786e-10
9.07634e-11
3.84291e-07
6.8486e-11
3.84234e-07
1.26504e-10
3.84166e-07
1.54761e-10
3.84095e-07
1.60108e-10
3.84027e-07
1.55464e-10
3.83963e-07
1.46181e-10
3.83904e-07
1.34039e-10
3.83851e-07
1.21064e-10
3.83803e-07
1.08722e-10
3.83761e-07
9.74748e-11
3.83723e-07
8.73588e-11
3.83688e-07
7.83518e-11
3.83658e-07
7.04175e-11
3.8363e-07
6.34951e-11
3.83605e-07
5.74988e-11
3.83582e-07
5.23267e-11
3.83561e-07
4.78702e-11
3.83541e-07
4.40259e-11
3.83524e-07
4.07141e-11
3.83507e-07
3.78837e-11
3.83491e-07
3.54924e-11
3.83477e-07
3.34923e-11
3.83463e-07
3.1833e-11
3.83449e-07
3.04679e-11
3.83436e-07
2.93636e-11
3.83423e-07
2.85124e-11
3.83411e-07
2.79287e-11
3.83399e-07
2.76295e-11
3.83386e-07
2.76267e-11
3.83373e-07
2.7931e-11
3.8336e-07
2.8558e-11
3.83346e-07
2.95407e-11
3.83332e-07
3.09407e-11
3.83316e-07
3.2836e-11
3.83299e-07
3.53068e-11
3.83281e-07
3.84374e-11
3.8326e-07
4.23235e-11
3.83237e-07
4.70816e-11
3.8321e-07
5.28638e-11
3.8318e-07
5.98612e-11
3.83146e-07
6.8292e-11
3.83106e-07
7.84014e-11
3.8306e-07
9.0472e-11
3.83007e-07
1.04838e-10
3.82945e-07
1.21904e-10
3.82872e-07
1.42169e-10
3.82787e-07
1.66214e-10
3.82688e-07
1.94718e-10
3.82571e-07
2.28481e-10
3.82434e-07
2.68449e-10
3.82273e-07
3.15753e-10
3.82083e-07
3.71747e-10
3.8186e-07
4.38024e-10
3.81598e-07
5.16439e-10
3.81289e-07
6.09158e-10
3.80926e-07
7.18686e-10
3.80499e-07
8.47904e-10
3.79997e-07
1.00008e-09
3.79408e-07
1.17881e-09
3.78719e-07
1.38797e-09
3.77914e-07
1.63159e-09
3.76976e-07
1.9136e-09
3.75888e-07
2.23762e-09
3.74631e-07
2.60646e-09
3.73189e-07
3.02171e-09
3.71543e-07
3.4832e-09
3.69679e-07
3.9886e-09
3.67584e-07
4.53308e-09
3.65249e-07
5.10925e-09
3.62668e-07
5.70733e-09
3.5984e-07
6.31565e-09
3.56768e-07
6.92137e-09
3.5346e-07
7.51145e-09
3.49928e-07
8.07356e-09
3.46185e-07
8.59694e-09
3.42252e-07
9.07305e-09
3.38147e-07
9.49591e-09
3.33892e-07
9.86226e-09
3.2951e-07
1.01714e-08
3.25021e-07
1.0425e-08
3.20448e-07
1.06267e-08
3.15807e-07
1.07821e-08
3.11114e-07
1.08984e-08
3.06383e-07
1.09843e-08
3.0162e-07
1.10496e-08
2.96831e-07
1.11045e-08
2.92014e-07
1.11586e-08
2.87168e-07
1.12187e-08
2.82289e-07
1.12872e-08
2.77375e-07
1.13602e-08
2.72429e-07
1.14267e-08
2.67461e-07
1.14697e-08
2.62492e-07
1.14687e-08
2.57549e-07
1.14032e-08
2.52668e-07
1.1257e-08
2.47887e-07
1.10218e-08
2.43244e-07
1.07e-08
2.38771e-07
1.03048e-08
2.34491e-07
9.85838e-09
2.30413e-07
9.38865e-09
2.26535e-07
8.92375e-09
2.22846e-07
8.48746e-09
2.19326e-07
8.09574e-09
2.15952e-07
7.75563e-09
2.12704e-07
7.4662e-09
2.09561e-07
7.22109e-09
2.06509e-07
7.0114e-09
2.03537e-07
6.82803e-09
2.00635e-07
6.66321e-09
1.978e-07
6.51105e-09
1.95026e-07
6.36752e-09
1.92312e-07
6.23005e-09
1.89655e-07
6.0971e-09
1.87054e-07
5.96782e-09
1.84508e-07
5.84173e-09
1.82015e-07
5.71854e-09
1.79574e-07
5.59807e-09
1.77185e-07
5.48016e-09
1.74845e-07
5.36461e-09
1.72555e-07
5.25116e-09
1.70313e-07
5.1395e-09
1.68119e-07
5.02919e-09
1.65973e-07
4.91973e-09
1.63874e-07
4.8106e-09
1.61822e-07
4.70135e-09
1.59818e-07
4.59172e-09
1.57862e-07
4.48188e-09
1.55953e-07
4.37252e-09
1.54091e-07
4.26502e-09
1.52274e-07
4.16153e-09
1.50499e-07
4.06486e-09
1.48762e-07
3.97841e-09
1.47056e-07
3.90599e-09
1.45374e-07
3.85159e-09
1.43706e-07
3.81926e-09
1.42041e-07
3.81303e-09
1.40365e-07
3.83691e-09
1.38664e-07
3.89493e-09
1.36921e-07
3.99124e-09
1.35118e-07
4.13005e-09
1.33234e-07
4.31555e-09
1.31248e-07
4.55149e-09
1.29136e-07
4.84034e-09
1.26875e-07
5.18189e-09
1.24445e-07
5.57115e-09
1.2183e-07
5.99584e-09
1.19023e-07
6.43406e-09
1.16034e-07
6.85378e-09
1.12887e-07
7.2157e-09
1.09623e-07
7.48074e-09
1.06298e-07
7.62043e-09
1.0297e-07
7.62584e-09
9.96911e-08
7.51008e-09
9.65018e-08
7.30286e-09
9.34263e-08
7.04023e-09
9.04747e-08
6.75495e-09
8.76468e-08
6.47076e-09
8.4936e-08
6.20132e-09
8.23339e-08
5.95193e-09
7.98318e-08
5.72237e-09
7.74226e-08
5.50938e-09
7.51008e-08
5.30853e-09
7.28633e-08
5.11522e-09
7.07086e-08
4.92529e-09
6.86368e-08
4.73519e-09
6.66491e-08
4.54204e-09
6.47478e-08
4.34363e-09
6.2936e-08
4.13838e-09
6.12171e-08
3.92537e-09
5.95945e-08
3.70428e-09
5.80716e-08
3.47546e-09
5.66515e-08
3.23992e-09
5.53363e-08
2.99937e-09
5.41272e-08
2.75619e-09
5.30242e-08
2.51331e-09
5.20257e-08
2.27407e-09
5.11287e-08
2.04193e-09
5.03288e-08
1.82021e-09
4.96202e-08
1.61175e-09
4.89962e-08
1.41873e-09
4.84495e-08
1.24252e-09
4.79726e-08
1.08366e-09
4.75579e-08
9.41981e-10
4.71982e-08
8.16732e-10
4.6887e-08
7.06788e-10
4.6618e-08
6.10732e-10
4.63857e-08
5.27185e-10
4.61855e-08
4.54551e-10
4.60129e-08
3.91777e-10
4.58643e-08
3.37092e-10
4.57363e-08
2.90553e-10
4.56265e-08
2.49262e-10
4.5531e-08
2.16663e-10
4.54494e-08
1.85034e-10
4.5375e-08
1.68993e-10
4.53117e-08
1.4368e-10
4.52423e-08
1.57691e-10
4.51832e-08
1.34266e-10
4.50996e-08
1.90387e-10
1.61835e-10
4.94086e-07
1.10291e-10
4.9401e-07
2.02503e-10
4.9392e-07
2.45328e-10
4.93828e-07
2.52016e-10
4.93739e-07
2.43922e-10
4.93656e-07
2.2895e-10
4.93581e-07
2.09616e-10
4.93513e-07
1.89141e-10
4.93452e-07
1.69791e-10
4.93397e-07
1.52209e-10
4.93348e-07
1.36415e-10
4.93304e-07
1.22361e-10
4.93264e-07
1.09987e-10
4.93229e-07
9.9197e-11
4.93196e-07
8.98572e-11
4.93167e-07
8.18079e-11
4.9314e-07
7.48793e-11
4.93115e-07
6.89097e-11
4.93092e-07
6.37771e-11
4.9307e-07
5.94061e-11
4.9305e-07
5.57351e-11
4.93031e-07
5.26928e-11
4.93012e-07
5.02043e-11
4.92995e-07
4.82011e-11
4.92977e-07
4.66364e-11
4.9296e-07
4.55059e-11
4.92944e-07
4.48417e-11
4.92927e-07
4.46801e-11
4.92909e-07
4.505e-11
4.92891e-07
4.59797e-11
4.92872e-07
4.75068e-11
4.92852e-07
4.9698e-11
4.9283e-07
5.26691e-11
4.92806e-07
5.65638e-11
4.9278e-07
6.15314e-11
4.92751e-07
6.77312e-11
4.92718e-07
7.53444e-11
4.9268e-07
8.45899e-11
4.92638e-07
9.57486e-11
4.92588e-07
1.0917e-10
4.92531e-07
1.25255e-10
4.92465e-07
1.44452e-10
4.92388e-07
1.67281e-10
4.92299e-07
1.94354e-10
4.92194e-07
2.26409e-10
4.92072e-07
2.64342e-10
4.91929e-07
3.09198e-10
4.91762e-07
3.62191e-10
4.91566e-07
4.24739e-10
4.91335e-07
4.98505e-10
4.91066e-07
5.85455e-10
4.9075e-07
6.87911e-10
4.90379e-07
8.08562e-10
4.89945e-07
9.50489e-10
4.89437e-07
1.11722e-09
4.88843e-07
1.31272e-09
4.88149e-07
1.54143e-09
4.87341e-07
1.80822e-09
4.86402e-07
2.11819e-09
4.85313e-07
2.47656e-09
4.84057e-07
2.88832e-09
4.82612e-07
3.35792e-09
4.80961e-07
3.88877e-09
4.79085e-07
4.48276e-09
4.76967e-07
5.13972e-09
4.74593e-07
5.857e-09
4.71952e-07
6.62919e-09
4.69037e-07
7.44804e-09
4.65844e-07
8.3026e-09
4.62372e-07
9.17953e-09
4.58624e-07
1.00637e-08
4.54606e-07
1.0939e-08
4.50329e-07
1.17891e-08
4.45803e-07
1.25986e-08
4.41047e-07
1.33539e-08
4.36076e-07
1.40437e-08
4.30912e-07
1.466e-08
4.25576e-07
1.51979e-08
4.20092e-07
1.56558e-08
4.14481e-07
1.60355e-08
4.08767e-07
1.63415e-08
4.02967e-07
1.65812e-08
3.97101e-07
1.67647e-08
3.91181e-07
1.69045e-08
3.85216e-07
1.70148e-08
3.7921e-07
1.71107e-08
3.73162e-07
1.72064e-08
3.67069e-07
1.73118e-08
3.60926e-07
1.74299e-08
3.54732e-07
1.75542e-08
3.48491e-07
1.76675e-08
3.42217e-07
1.77433e-08
3.35937e-07
1.77497e-08
3.29685e-07
1.76551e-08
3.23507e-07
1.74345e-08
3.17453e-07
1.70756e-08
3.11571e-07
1.6582e-08
3.05902e-07
1.59745e-08
3.00473e-07
1.52875e-08
2.95297e-07
1.45642e-08
2.90373e-07
1.3848e-08
2.85684e-07
1.31758e-08
2.81208e-07
1.2572e-08
2.76916e-07
1.20476e-08
2.72781e-07
1.16013e-08
2.68779e-07
1.12232e-08
2.64891e-07
1.08997e-08
2.61102e-07
1.06168e-08
2.57403e-07
1.03624e-08
2.53786e-07
1.01275e-08
2.50248e-07
9.90594e-09
2.46784e-07
9.69363e-09
2.43393e-07
9.48825e-09
2.40072e-07
9.28846e-09
2.36821e-07
9.09352e-09
2.33636e-07
8.903e-09
2.30518e-07
8.71661e-09
2.27464e-07
8.5341e-09
2.24473e-07
8.35518e-09
2.21545e-07
8.17947e-09
2.18678e-07
8.00646e-09
2.15871e-07
7.83548e-09
2.13125e-07
7.66578e-09
2.10439e-07
7.49654e-09
2.07814e-07
7.32706e-09
2.05249e-07
7.15698e-09
2.02744e-07
6.98653e-09
2.003e-07
6.8168e-09
1.97915e-07
6.64993e-09
1.95587e-07
6.48924e-09
1.93313e-07
6.33911e-09
1.91086e-07
6.20483e-09
1.889e-07
6.0923e-09
1.86744e-07
6.00771e-09
1.84606e-07
5.95739e-09
1.82471e-07
5.94761e-09
1.80323e-07
5.98462e-09
1.78144e-07
6.07469e-09
1.75911e-07
6.22425e-09
1.73601e-07
6.43989e-09
1.71188e-07
6.72813e-09
1.68645e-07
7.09481e-09
1.65941e-07
7.54379e-09
1.63049e-07
8.07476e-09
1.5994e-07
8.68004e-09
1.56595e-07
9.34063e-09
1.53006e-07
1.00226e-08
1.49184e-07
1.06764e-08
1.45159e-07
1.12409e-08
1.40984e-07
1.16554e-08
1.36729e-07
1.18755e-08
1.32468e-07
1.1887e-08
1.28268e-07
1.17099e-08
1.24181e-07
1.13901e-08
1.20237e-07
1.09836e-08
1.16451e-07
1.05411e-08
1.12822e-07
1.00997e-08
1.09343e-07
9.6809e-09
1.06001e-07
9.29302e-09
1.02788e-07
8.93582e-09
9.96931e-08
8.60433e-09
9.67099e-08
8.29169e-09
9.38343e-08
7.99081e-09
9.10644e-08
7.69519e-09
8.84003e-08
7.39932e-09
8.58436e-08
7.09871e-09
8.33973e-08
6.78991e-09
8.10652e-08
6.47048e-09
7.88517e-08
6.13894e-09
7.67612e-08
5.79478e-09
7.47981e-08
5.43851e-09
7.29664e-08
5.07168e-09
7.12688e-08
4.69692e-09
6.97071e-08
4.31789e-09
6.82813e-08
3.93912e-09
6.69896e-08
3.56578e-09
6.58283e-08
3.20327e-09
6.47917e-08
2.85673e-09
6.38728e-08
2.53066e-09
6.30631e-08
2.22848e-09
6.23532e-08
1.95238e-09
6.17336e-08
1.70329e-09
6.11946e-08
1.48099e-09
6.0727e-08
1.28435e-09
6.03221e-08
1.11165e-09
5.99721e-08
9.60709e-10
5.96699e-08
8.2938e-10
5.94093e-08
7.15181e-10
5.91846e-08
6.16466e-10
5.89912e-08
5.30463e-10
5.88245e-08
4.57258e-10
5.86815e-08
3.9231e-10
5.85571e-08
3.41002e-10
5.84509e-08
2.91245e-10
5.8354e-08
2.65901e-10
5.82716e-08
2.26069e-10
5.81815e-08
2.47781e-10
5.81049e-08
2.10921e-10
5.79967e-08
2.98621e-10
2.53748e-10
6.03879e-07
1.64954e-10
6.03782e-07
3.00364e-10
6.03667e-07
3.59542e-10
6.03553e-07
3.66161e-10
6.03444e-07
3.53026e-10
6.03342e-07
3.30639e-10
6.0325e-07
3.02161e-10
6.03167e-07
2.72328e-10
6.03092e-07
2.44353e-10
6.03025e-07
2.19025e-10
6.02965e-07
1.96303e-10
6.02912e-07
1.76101e-10
6.02863e-07
1.58325e-10
6.0282e-07
1.42838e-10
6.0278e-07
1.29446e-10
6.02744e-07
1.17919e-10
6.02711e-07
1.08013e-10
6.0268e-07
9.9496e-11
6.02652e-07
9.21977e-11
6.02625e-07
8.60188e-11
6.026e-07
8.08791e-11
6.02576e-07
7.66837e-11
6.02553e-07
7.3333e-11
6.0253e-07
7.07377e-11
6.02508e-07
6.88414e-11
6.02486e-07
6.76537e-11
6.02464e-07
6.72395e-11
6.02441e-07
6.76713e-11
6.02417e-07
6.90113e-11
6.02391e-07
7.13239e-11
6.02364e-07
7.46893e-11
6.02335e-07
7.9235e-11
6.02302e-07
8.51659e-11
6.02266e-07
9.27331e-11
6.02225e-07
1.022e-10
6.02179e-07
1.1385e-10
6.02127e-07
1.28009e-10
6.02066e-07
1.45064e-10
6.01996e-07
1.65506e-10
6.01916e-07
1.8994e-10
6.01822e-07
2.19056e-10
6.01713e-07
2.53633e-10
6.01585e-07
2.9457e-10
6.01437e-07
3.42917e-10
6.01263e-07
3.99933e-10
6.0106e-07
4.67132e-10
6.00823e-07
5.46266e-10
6.00546e-07
6.39351e-10
6.00222e-07
7.48725e-10
5.99844e-07
8.77088e-10
5.99401e-07
1.02759e-09
5.98885e-07
1.20388e-09
5.98284e-07
1.41009e-09
5.97584e-07
1.65084e-09
5.9677e-07
1.93127e-09
5.95825e-07
2.25693e-09
5.94733e-07
2.63379e-09
5.93473e-07
3.06794e-09
5.92026e-07
3.56538e-09
5.90371e-07
4.1316e-09
5.88488e-07
4.77113e-09
5.86359e-07
5.48712e-09
5.83967e-07
6.28084e-09
5.81298e-07
7.1513e-09
5.78343e-07
8.09491e-09
5.75095e-07
9.10535e-09
5.7155e-07
1.01736e-08
5.6771e-07
1.12883e-08
5.63577e-07
1.24356e-08
5.59157e-07
1.36001e-08
5.54456e-07
1.47646e-08
5.49483e-07
1.59116e-08
5.44249e-07
1.70231e-08
5.38766e-07
1.8082e-08
5.33047e-07
1.90728e-08
5.27108e-07
1.99824e-08
5.20968e-07
2.08006e-08
5.14645e-07
2.15209e-08
5.0816e-07
2.21405e-08
5.01535e-07
2.26606e-08
4.9479e-07
2.30862e-08
4.87945e-07
2.34261e-08
4.81017e-07
2.36929e-08
4.74019e-07
2.39029e-08
4.66958e-07
2.40751e-08
4.59839e-07
2.42299e-08
4.5266e-07
2.43859e-08
4.45415e-07
2.45565e-08
4.381e-07
2.47449e-08
4.30713e-07
2.49411e-08
4.23261e-07
2.51199e-08
4.15761e-07
2.52432e-08
4.08245e-07
2.52656e-08
4.00758e-07
2.51422e-08
3.93354e-07
2.48378e-08
3.86095e-07
2.43353e-08
3.79036e-07
2.36403e-08
3.72228e-07
2.27825e-08
3.65705e-07
2.18114e-08
3.59481e-07
2.07881e-08
3.53554e-07
1.97745e-08
3.47907e-07
1.88228e-08
3.42511e-07
1.79678e-08
3.37334e-07
1.72251e-08
3.32342e-07
1.65928e-08
3.27509e-07
1.60569e-08
3.2281e-07
1.55983e-08
3.1823e-07
1.51971e-08
3.13756e-07
1.48364e-08
3.0938e-07
1.45032e-08
3.05097e-07
1.41887e-08
3.00904e-07
1.38873e-08
2.96796e-07
1.35957e-08
2.92773e-07
1.33118e-08
2.88832e-07
1.30347e-08
2.84971e-07
1.27638e-08
2.81189e-07
1.24986e-08
2.77484e-07
1.22388e-08
2.73855e-07
1.1984e-08
2.70301e-07
1.17337e-08
2.66821e-07
1.14871e-08
2.63413e-07
1.12433e-08
2.60077e-07
1.10013e-08
2.56814e-07
1.07598e-08
2.53623e-07
1.05179e-08
2.50505e-07
1.02751e-08
2.4746e-07
1.00317e-08
2.44487e-07
9.78933e-09
2.41586e-07
9.55096e-09
2.38754e-07
9.32136e-09
2.35986e-07
9.10679e-09
2.33276e-07
8.91481e-09
2.30615e-07
8.75386e-09
2.2799e-07
8.63282e-09
2.25386e-07
8.56074e-09
2.22787e-07
8.54661e-09
2.20173e-07
8.59939e-09
2.17519e-07
8.72808e-09
2.14802e-07
8.9419e-09
2.11991e-07
9.25029e-09
2.09057e-07
9.6626e-09
2.05964e-07
1.01872e-08
2.02678e-07
1.08297e-08
1.99164e-07
1.15896e-08
1.95388e-07
1.24561e-08
1.91326e-07
1.34022e-08
1.86969e-07
1.43795e-08
1.82328e-07
1.53172e-08
1.77441e-07
1.61283e-08
1.72371e-07
1.67257e-08
1.672e-07
1.70457e-08
1.6202e-07
1.70675e-08
1.56911e-07
1.6819e-08
1.51936e-07
1.63654e-08
1.47133e-07
1.57865e-08
1.42519e-07
1.5155e-08
1.38094e-07
1.45242e-08
1.3385e-07
1.3925e-08
1.29774e-07
1.33696e-08
1.25852e-07
1.28578e-08
1.22073e-07
1.23828e-08
1.1843e-07
1.19347e-08
1.14917e-07
1.15035e-08
1.11533e-07
1.10798e-08
1.08276e-07
1.06558e-08
1.0515e-07
1.0225e-08
1.02157e-07
9.78247e-09
9.93033e-08
9.3247e-09
9.65927e-08
8.84952e-09
9.40313e-08
8.35618e-09
9.16244e-08
7.84538e-09
8.93768e-08
7.31927e-09
8.72922e-08
6.78155e-09
8.53727e-08
6.23741e-09
8.36185e-08
5.69329e-09
8.20278e-08
5.15654e-09
8.05961e-08
4.63489e-09
7.93171e-08
4.13576e-09
7.81821e-08
3.66562e-09
7.71811e-08
3.22949e-09
7.63029e-08
2.83062e-09
7.55358e-08
2.47042e-09
7.48681e-08
2.14869e-09
7.42885e-08
1.86389e-09
7.37865e-08
1.61362e-09
7.33525e-08
1.39476e-09
7.29776e-08
1.20427e-09
7.26542e-08
1.03858e-09
7.23753e-08
8.9532e-10
7.21353e-08
7.70493e-10
7.19284e-08
6.64219e-10
7.17507e-08
5.69934e-10
7.15963e-08
4.95397e-10
7.14644e-08
4.23148e-10
7.13442e-08
3.86166e-10
7.12419e-08
3.28299e-10
7.11304e-08
3.59267e-10
7.10357e-08
3.05696e-10
7.09022e-08
4.32061e-10
3.66896e-10
7.1367e-07
2.35087e-10
7.13547e-07
4.23506e-10
7.13407e-07
4.99577e-10
7.13269e-07
5.03568e-10
7.13139e-07
4.83343e-10
7.13018e-07
4.51555e-10
7.12909e-07
4.11766e-10
7.1281e-07
3.70613e-10
7.12722e-07
3.3237e-10
7.12643e-07
2.97885e-10
7.12573e-07
2.67001e-10
7.12509e-07
2.39565e-10
7.12452e-07
2.15446e-10
7.124e-07
1.94456e-10
7.12354e-07
1.76332e-10
7.12311e-07
1.60765e-10
7.12271e-07
1.47423e-10
7.12235e-07
1.35995e-10
7.12201e-07
1.26257e-10
7.12169e-07
1.18092e-10
7.12138e-07
1.11409e-10
7.12109e-07
1.06093e-10
7.1208e-07
1.02025e-10
7.12052e-07
9.91013e-11
7.12023e-07
9.72669e-11
7.11994e-07
9.65644e-11
7.11964e-07
9.71179e-11
7.11933e-07
9.90627e-11