/*--------------------------------*- C++ -*----------------------------------*\
| =========                 |                                                 |
| \\      /  F ield         | OpenFOAM: The Open Source CFD Toolbox           |
|  \\    /   O peration     | Version:  1.7.x                                 |
|   \\  /    A nd           | Web:      www.OpenFOAM.com                      |
|    \\/     M anipulation  |                                                 |
\*---------------------------------------------------------------------------*/
FoamFile
{
    version     2.0;
    format      ascii;
    class       volScalarField;
    location    "1800";
    object      rho;
}
// * * * * * * * * * * * * * * * * * * * * * * * * * * * * * * * * * * * * * //

dimensions      [1 -3 0 0 0 0 0];

internalField   nonuniform List<scalar> 
14800
(
1.25936
1.25936
1.25936
1.25936
1.25936
1.25937
1.25937
1.25937
1.25937
1.25937
1.25937
1.25937
1.25937
1.25937
1.25937
1.25937
1.25937
1.25937
1.25937
1.25937
1.25937
1.25937
1.25937
1.25937
1.25937
1.25937
1.25937
1.25937
1.25937
1.25937
1.25937
1.25937
1.25937
1.25937
1.25937
1.25937
1.25937
1.25937
1.25936
1.25936
1.25936
1.25935
1.25935
1.25934
1.25933
1.25933
1.25931
1.2593
1.25928
1.25927
1.25924
1.25921
1.25918
1.25914
1.25909
1.25904
1.25897
1.25889
1.25879
1.25868
1.25854
1.25838
1.25819
1.25795
1.25768
1.25736
1.25698
1.25654
1.25603
1.25544
1.25477
1.25403
1.2532
1.2523
1.25132
1.25028
1.24918
1.24802
1.24682
1.24558
1.24431
1.24301
1.24167
1.24029
1.23883
1.23724
1.23545
1.23337
1.23089
1.22789
1.22428
1.22003
1.21514
1.2097
1.20389
1.19794
1.1921
1.18664
1.18176
1.17763
1.1743
1.17176
1.16991
1.16864
1.1678
1.16727
1.16695
1.16675
1.16664
1.16656
1.16652
1.16649
1.16647
1.16645
1.16644
1.16643
1.16643
1.16642
1.16642
1.16641
1.16641
1.16641
1.16641
1.16641
1.16641
1.16641
1.16641
1.16641
1.1664
1.1664
1.1664
1.1664
1.1664
1.1664
1.1664
1.1664
1.1664
1.1664
1.1664
1.1664
1.1664
1.1664
1.1664
1.1664
1.1664
1.1664
1.1664
1.16641
1.16641
1.16641
1.16641
1.16641
1.1664
1.1664
1.1664
1.1664
1.1664
1.1664
1.1664
1.1664
1.1664
1.1664
1.1664
1.1664
1.1664
1.1664
1.1664
1.1664
1.1664
1.1664
1.1664
1.1664
1.1664
1.1664
1.1664
1.1664
1.1664
1.1664
1.1664
1.1664
1.1664
1.1664
1.1664
1.1664
1.1664
1.1664
1.1664
1.1664
1.1664
1.1664
1.1664
1.16639
1.16639
1.16639
1.16639
1.16639
1.16639
1.16639
1.16639
1.16639
1.25936
1.25936
1.25936
1.25936
1.25936
1.25937
1.25937
1.25937
1.25937
1.25937
1.25937
1.25937
1.25937
1.25937
1.25937
1.25937
1.25937
1.25937
1.25937
1.25937
1.25937
1.25937
1.25937
1.25937
1.25937
1.25937
1.25937
1.25937
1.25937
1.25937
1.25937
1.25937
1.25937
1.25937
1.25937
1.25937
1.25937
1.25937
1.25936
1.25936
1.25936
1.25935
1.25935
1.25934
1.25933
1.25932
1.25931
1.25929
1.25928
1.25925
1.25923
1.2592
1.25916
1.25912
1.25907
1.25901
1.25894
1.25885
1.25875
1.25863
1.25848
1.25831
1.2581
1.25786
1.25757
1.25724
1.25684
1.25639
1.25586
1.25526
1.25459
1.25384
1.25301
1.2521
1.25113
1.25009
1.24899
1.24784
1.24664
1.24541
1.24415
1.24286
1.24153
1.24015
1.2387
1.23711
1.23533
1.23326
1.23078
1.22778
1.22419
1.21994
1.21505
1.20963
1.20383
1.19789
1.19207
1.18661
1.18175
1.17763
1.1743
1.17176
1.16992
1.16864
1.1678
1.16727
1.16695
1.16676
1.16664
1.16657
1.16652
1.16649
1.16647
1.16645
1.16644
1.16643
1.16643
1.16642
1.16642
1.16641
1.16641
1.16641
1.16641
1.16641
1.16641
1.16641
1.16641
1.1664
1.1664
1.1664
1.1664
1.1664
1.1664
1.1664
1.1664
1.1664
1.1664
1.1664
1.1664
1.1664
1.1664
1.1664
1.1664
1.1664
1.1664
1.1664
1.1664
1.1664
1.1664
1.1664
1.1664
1.1664
1.1664
1.1664
1.1664
1.1664
1.1664
1.1664
1.1664
1.1664
1.1664
1.1664
1.1664
1.1664
1.1664
1.1664
1.1664
1.1664
1.1664
1.1664
1.1664
1.1664
1.1664
1.1664
1.1664
1.1664
1.1664
1.1664
1.1664
1.1664
1.1664
1.1664
1.1664
1.1664
1.1664
1.1664
1.1664
1.1664
1.1664
1.1664
1.1664
1.16639
1.16639
1.16639
1.16639
1.16639
1.16639
1.16639
1.16639
1.16639
1.25936
1.25936
1.25936
1.25936
1.25936
1.25937
1.25937
1.25937
1.25937
1.25937
1.25937
1.25937
1.25937
1.25937
1.25937
1.25937
1.25937
1.25937
1.25937
1.25937
1.25937
1.25937
1.25937
1.25937
1.25937
1.25937
1.25937
1.25937
1.25937
1.25937
1.25937
1.25937
1.25937
1.25937
1.25937
1.25937
1.25937
1.25936
1.25936
1.25936
1.25935
1.25935
1.25934
1.25933
1.25932
1.25931
1.25929
1.25928
1.25925
1.25923
1.2592
1.25916
1.25912
1.25907
1.25901
1.25894
1.25886
1.25876
1.25864
1.2585
1.25833
1.25814
1.25791
1.25764
1.25732
1.25696
1.25654
1.25605
1.2555
1.25488
1.25418
1.25342
1.25258
1.25167
1.25069
1.24966
1.24857
1.24743
1.24625
1.24504
1.24379
1.24252
1.24121
1.23985
1.23841
1.23684
1.23507
1.233
1.23053
1.22755
1.22396
1.21972
1.21486
1.20945
1.20368
1.19776
1.19197
1.18654
1.1817
1.1776
1.17429
1.17176
1.16992
1.16865
1.16782
1.16729
1.16696
1.16676
1.16665
1.16657
1.16653
1.16649
1.16647
1.16646
1.16644
1.16643
1.16643
1.16642
1.16642
1.16641
1.16641
1.16641
1.16641
1.16641
1.16641
1.16641
1.16641
1.1664
1.1664
1.1664
1.1664
1.1664
1.1664
1.1664
1.1664
1.1664
1.1664
1.1664
1.1664
1.1664
1.1664
1.1664
1.1664
1.1664
1.1664
1.1664
1.1664
1.1664
1.1664
1.16641
1.1664
1.1664
1.1664
1.1664
1.1664
1.1664
1.1664
1.1664
1.1664
1.1664
1.1664
1.1664
1.1664
1.1664
1.1664
1.1664
1.1664
1.1664
1.1664
1.1664
1.1664
1.1664
1.1664
1.1664
1.1664
1.1664
1.1664
1.1664
1.1664
1.1664
1.1664
1.1664
1.1664
1.1664
1.1664
1.1664
1.1664
1.1664
1.1664
1.1664
1.1664
1.16639
1.16639
1.16639
1.16639
1.16639
1.16639
1.16639
1.16639
1.16639
1.25936
1.25936
1.25936
1.25936
1.25936
1.25937
1.25937
1.25937
1.25937
1.25937
1.25937
1.25937
1.25937
1.25937
1.25937
1.25937
1.25937
1.25937
1.25937
1.25937
1.25937
1.25937
1.25937
1.25937
1.25937
1.25937
1.25937
1.25937
1.25937
1.25937
1.25937
1.25937
1.25937
1.25937
1.25937
1.25936
1.25936
1.25936
1.25935
1.25935
1.25934
1.25933
1.25933
1.25931
1.2593
1.25929
1.25927
1.25924
1.25922
1.25919
1.25915
1.2591
1.25905
1.25899
1.25891
1.25883
1.25872
1.2586
1.25846
1.25829
1.25809
1.25786
1.2576
1.25729
1.25693
1.25652
1.25605
1.25553
1.25494
1.25429
1.25357
1.25278
1.25193
1.25102
1.25005
1.24902
1.24795
1.24683
1.24568
1.24449
1.24327
1.24202
1.24073
1.2394
1.23798
1.23643
1.23467
1.23262
1.23016
1.22718
1.2236
1.21938
1.21454
1.20916
1.20342
1.19755
1.19179
1.18641
1.18161
1.17754
1.17426
1.17175
1.16992
1.16866
1.16783
1.1673
1.16697
1.16678
1.16666
1.16658
1.16653
1.1665
1.16648
1.16646
1.16645
1.16644
1.16643
1.16642
1.16642
1.16642
1.16641
1.16641
1.16641
1.16641
1.16641
1.16641
1.16641
1.16641
1.1664
1.1664
1.1664
1.1664
1.1664
1.1664
1.1664
1.1664
1.1664
1.1664
1.1664
1.1664
1.1664
1.1664
1.1664
1.1664
1.1664
1.1664
1.1664
1.1664
1.1664
1.16641
1.16641
1.1664
1.1664
1.1664
1.1664
1.1664
1.1664
1.1664
1.1664
1.1664
1.1664
1.1664
1.1664
1.1664
1.1664
1.1664
1.1664
1.1664
1.1664
1.1664
1.1664
1.1664
1.1664
1.1664
1.1664
1.1664
1.1664
1.1664
1.1664
1.1664
1.1664
1.1664
1.1664
1.1664
1.1664
1.1664
1.1664
1.1664
1.1664
1.1664
1.1664
1.16639
1.16639
1.16639
1.16639
1.16639
1.16639
1.16639
1.16639
1.16639
1.25936
1.25936
1.25936
1.25936
1.25936
1.25937
1.25937
1.25937
1.25937
1.25937
1.25937
1.25937
1.25937
1.25937
1.25937
1.25937
1.25937
1.25937
1.25937
1.25937
1.25937
1.25937
1.25937
1.25937
1.25937
1.25937
1.25937
1.25937
1.25937
1.25937
1.25937
1.25937
1.25937
1.25936
1.25936
1.25936
1.25935
1.25935
1.25934
1.25934
1.25933
1.25932
1.2593
1.25929
1.25927
1.25925
1.25922
1.25919
1.25916
1.25912
1.25907
1.25901
1.25894
1.25886
1.25876
1.25865
1.25852
1.25837
1.25819
1.25798
1.25774
1.25746
1.25714
1.25678
1.25637
1.2559
1.25539
1.25481
1.25418
1.25349
1.25274
1.25194
1.25108
1.25017
1.2492
1.24819
1.24714
1.24605
1.24492
1.24376
1.24258
1.24136
1.24011
1.2388
1.23741
1.23588
1.23414
1.23211
1.22966
1.22669
1.22313
1.21893
1.21411
1.20877
1.20307
1.19725
1.19155
1.18622
1.18147
1.17745
1.17421
1.17173
1.16992
1.16867
1.16785
1.16732
1.16699
1.16679
1.16667
1.16659
1.16654
1.16651
1.16648
1.16646
1.16645
1.16644
1.16643
1.16643
1.16642
1.16642
1.16641
1.16641
1.16641
1.16641
1.16641
1.16641
1.16641
1.16641
1.1664
1.1664
1.1664
1.1664
1.1664
1.1664
1.1664
1.1664
1.1664
1.1664
1.1664
1.1664
1.1664
1.1664
1.1664
1.1664
1.1664
1.1664
1.1664
1.1664
1.1664
1.16641
1.16641
1.1664
1.1664
1.1664
1.1664
1.1664
1.1664
1.1664
1.1664
1.1664
1.1664
1.1664
1.1664
1.1664
1.1664
1.1664
1.1664
1.1664
1.1664
1.1664
1.1664
1.1664
1.1664
1.1664
1.1664
1.1664
1.1664
1.1664
1.1664
1.1664
1.1664
1.1664
1.1664
1.1664
1.1664
1.1664
1.1664
1.1664
1.1664
1.1664
1.1664
1.16639
1.16639
1.16639
1.16639
1.16639
1.16639
1.16639
1.16639
1.16639
1.25936
1.25936
1.25936
1.25936
1.25936
1.25937
1.25937
1.25937
1.25937
1.25937
1.25937
1.25937
1.25937
1.25937
1.25937
1.25937
1.25937
1.25937
1.25937
1.25937
1.25937
1.25937
1.25937
1.25937
1.25937
1.25937
1.25937
1.25937
1.25937
1.25937
1.25937
1.25936
1.25936
1.25936
1.25935
1.25935
1.25934
1.25934
1.25933
1.25932
1.2593
1.25929
1.25927
1.25925
1.25923
1.2592
1.25916
1.25912
1.25907
1.25901
1.25894
1.25887
1.25877
1.25866
1.25854
1.25839
1.25822
1.25802
1.2578
1.25753
1.25724
1.2569
1.25652
1.25609
1.25562
1.25509
1.25452
1.25389
1.25322
1.25249
1.25172
1.2509
1.25003
1.24912
1.24817
1.24718
1.24615
1.24509
1.244
1.24288
1.24174
1.24056
1.23934
1.23807
1.23671
1.23521
1.2335
1.23148
1.22904
1.22609
1.22255
1.21837
1.21358
1.20828
1.20264
1.19688
1.19125
1.18599
1.18131
1.17734
1.17415
1.1717
1.16992
1.16869
1.16787
1.16734
1.16701
1.16681
1.16669
1.16661
1.16655
1.16652
1.16649
1.16647
1.16646
1.16644
1.16644
1.16643
1.16642
1.16642
1.16642
1.16641
1.16641
1.16641
1.16641
1.16641
1.16641
1.16641
1.1664
1.1664
1.1664
1.1664
1.1664
1.1664
1.1664
1.1664
1.1664
1.1664
1.1664
1.1664
1.1664
1.1664
1.1664
1.1664
1.1664
1.1664
1.1664
1.1664
1.1664
1.16641
1.16641
1.1664
1.1664
1.1664
1.1664
1.1664
1.1664
1.1664
1.1664
1.1664
1.1664
1.1664
1.1664
1.1664
1.1664
1.1664
1.1664
1.1664
1.1664
1.1664
1.1664
1.1664
1.1664
1.1664
1.1664
1.1664
1.1664
1.1664
1.1664
1.1664
1.1664
1.1664
1.1664
1.1664
1.1664
1.1664
1.1664
1.1664
1.1664
1.1664
1.1664
1.16639
1.16639
1.16639
1.16639
1.16639
1.16639
1.16639
1.16639
1.16639
1.25936
1.25936
1.25936
1.25936
1.25936
1.25937
1.25937
1.25937
1.25937
1.25937
1.25937
1.25937
1.25937
1.25937
1.25937
1.25937
1.25937
1.25937
1.25937
1.25937
1.25937
1.25937
1.25937
1.25937
1.25937
1.25937
1.25937
1.25937
1.25937
1.25936
1.25936
1.25936
1.25935
1.25935
1.25934
1.25934
1.25933
1.25932
1.2593
1.25929
1.25927
1.25925
1.25922
1.25919
1.25915
1.25911
1.25906
1.259
1.25893
1.25885
1.25876
1.25865
1.25853
1.25838
1.25821
1.25802
1.25779
1.25754
1.25725
1.25692
1.25656
1.25615
1.2557
1.2552
1.25466
1.25407
1.25344
1.25277
1.25206
1.25131
1.25051
1.24968
1.24882
1.24792
1.24698
1.24602
1.24502
1.24399
1.24294
1.24186
1.24076
1.23963
1.23846
1.23723
1.2359
1.23443
1.23274
1.23074
1.22832
1.22539
1.22186
1.21771
1.21296
1.20771
1.20213
1.19644
1.19089
1.18572
1.18112
1.17722
1.17408
1.17168
1.16992
1.1687
1.16789
1.16737
1.16704
1.16684
1.16671
1.16662
1.16657
1.16653
1.1665
1.16648
1.16646
1.16645
1.16644
1.16643
1.16643
1.16642
1.16642
1.16641
1.16641
1.16641
1.16641
1.16641
1.16641
1.16641
1.16641
1.1664
1.1664
1.1664
1.1664
1.1664
1.1664
1.1664
1.1664
1.1664
1.1664
1.1664
1.1664
1.1664
1.1664
1.1664
1.1664
1.1664
1.1664
1.1664
1.1664
1.16641
1.16641
1.1664
1.1664
1.1664
1.1664
1.1664
1.1664
1.1664
1.1664
1.1664
1.1664
1.1664
1.1664
1.1664
1.1664
1.1664
1.1664
1.1664
1.1664
1.1664
1.1664
1.1664
1.1664
1.1664
1.1664
1.1664
1.1664
1.1664
1.1664
1.1664
1.1664
1.1664
1.1664
1.1664
1.1664
1.1664
1.1664
1.1664
1.1664
1.1664
1.1664
1.16639
1.16639
1.16639
1.16639
1.16639
1.16639
1.16639
1.16639
1.16639
1.25936
1.25936
1.25936
1.25936
1.25936
1.25936
1.25937
1.25937
1.25937
1.25937
1.25937
1.25937
1.25937
1.25937
1.25937
1.25937
1.25937
1.25937
1.25937
1.25937
1.25937
1.25937
1.25937
1.25937
1.25937
1.25937
1.25937
1.25936
1.25936
1.25936
1.25935
1.25935
1.25934
1.25933
1.25932
1.25931
1.2593
1.25928
1.25926
1.25924
1.25921
1.25918
1.25914
1.2591
1.25904
1.25898
1.25891
1.25883
1.25873
1.25862
1.25849
1.25834
1.25817
1.25797
1.25774
1.25749
1.2572
1.25687
1.25651
1.25611
1.25566
1.25518
1.25465
1.25409
1.25349
1.25285
1.25217
1.25146
1.25072
1.24994
1.24914
1.24831
1.24745
1.24656
1.24565
1.24471
1.24375
1.24276
1.24176
1.24072
1.23967
1.23858
1.23746
1.23627
1.23498
1.23355
1.23188
1.2299
1.22751
1.22459
1.22109
1.21696
1.21226
1.20707
1.20156
1.19596
1.1905
1.18542
1.1809
1.17708
1.17401
1.17165
1.16993
1.16873
1.16792
1.1674
1.16707
1.16687
1.16673
1.16665
1.16659
1.16654
1.16651
1.16649
1.16647
1.16646
1.16644
1.16644
1.16643
1.16642
1.16642
1.16642
1.16641
1.16641
1.16641
1.16641
1.16641
1.16641
1.16641
1.16641
1.1664
1.1664
1.1664
1.1664
1.1664
1.1664
1.1664
1.1664
1.1664
1.1664
1.1664
1.1664
1.1664
1.1664
1.1664
1.1664
1.1664
1.1664
1.1664
1.16641
1.1664
1.1664
1.1664
1.1664
1.1664
1.1664
1.1664
1.1664
1.1664
1.1664
1.1664
1.1664
1.1664
1.1664
1.1664
1.1664
1.1664
1.1664
1.1664
1.1664
1.1664
1.1664
1.1664
1.1664
1.1664
1.1664
1.1664
1.1664
1.1664
1.1664
1.1664
1.1664
1.1664
1.1664
1.1664
1.1664
1.1664
1.1664
1.1664
1.1664
1.1664
1.16639
1.16639
1.16639
1.16639
1.16639
1.16639
1.16639
1.16639
1.16639
1.25936
1.25936
1.25936
1.25936
1.25936
1.25936
1.25937
1.25937
1.25937
1.25937
1.25937
1.25937
1.25937
1.25937
1.25937
1.25937
1.25937
1.25937
1.25937
1.25937
1.25937
1.25937
1.25937
1.25937
1.25937
1.25936
1.25936
1.25936
1.25935
1.25935
1.25934
1.25933
1.25932
1.25931
1.25929
1.25927
1.25925
1.25923
1.2592
1.25916
1.25912
1.25907
1.25902
1.25895
1.25887
1.25878
1.25868
1.25856
1.25843
1.25827
1.25809
1.25788
1.25765
1.25738
1.25709
1.25675
1.25638
1.25598
1.25553
1.25505
1.25453
1.25397
1.25338
1.25276
1.2521
1.25142
1.25071
1.24997
1.24921
1.24843
1.24762
1.2468
1.24595
1.24508
1.2442
1.24329
1.24237
1.24143
1.24046
1.23948
1.23847
1.23744
1.23636
1.23522
1.23397
1.23257
1.23094
1.22898
1.2266
1.22371
1.22023
1.21615
1.21149
1.20637
1.20094
1.19543
1.19008
1.1851
1.18068
1.17694
1.17394
1.17163
1.16994
1.16876
1.16797
1.16745
1.16711
1.1669
1.16676
1.16667
1.16661
1.16656
1.16653
1.1665
1.16648
1.16646
1.16645
1.16644
1.16643
1.16643
1.16642
1.16642
1.16641
1.16641
1.16641
1.16641
1.16641
1.16641
1.16641
1.16641
1.1664
1.1664
1.1664
1.1664
1.1664
1.1664
1.1664
1.1664
1.1664
1.1664
1.1664
1.1664
1.1664
1.1664
1.1664
1.1664
1.1664
1.1664
1.16641
1.16641
1.1664
1.1664
1.1664
1.1664
1.1664
1.1664
1.1664
1.1664
1.1664
1.1664
1.1664
1.1664
1.1664
1.1664
1.1664
1.1664
1.1664
1.1664
1.1664
1.1664
1.1664
1.1664
1.1664
1.1664
1.1664
1.1664
1.1664
1.1664
1.1664
1.1664
1.1664
1.1664
1.1664
1.1664
1.1664
1.1664
1.1664
1.1664
1.1664
1.1664
1.1664
1.16639
1.16639
1.16639
1.16639
1.16639
1.16639
1.16639
1.16639
1.16639
1.25936
1.25936
1.25936
1.25936
1.25936
1.25936
1.25937
1.25937
1.25937
1.25937
1.25937
1.25937
1.25937
1.25937
1.25937
1.25937
1.25937
1.25937
1.25937
1.25937
1.25937
1.25937
1.25936
1.25936
1.25936
1.25935
1.25935
1.25934
1.25934
1.25933
1.25931
1.2593
1.25928
1.25926
1.25924
1.25921
1.25918
1.25914
1.25909
1.25904
1.25898
1.25891
1.25882
1.25872
1.25861
1.25848
1.25833
1.25816
1.25797
1.25775
1.2575
1.25722
1.25691
1.25656
1.25618
1.25576
1.25531
1.25482
1.25429
1.25374
1.25315
1.25253
1.25188
1.25121
1.25052
1.24981
1.24908
1.24833
1.24756
1.24678
1.24598
1.24517
1.24434
1.2435
1.24265
1.24178
1.2409
1.24
1.23908
1.23815
1.23719
1.23621
1.23518
1.23408
1.23288
1.23151
1.22991
1.22798
1.22563
1.22276
1.21931
1.21527
1.21067
1.20562
1.20029
1.19488
1.18964
1.18477
1.18045
1.17681
1.17387
1.17162
1.16996
1.1688
1.16802
1.1675
1.16716
1.16694
1.1668
1.1667
1.16663
1.16658
1.16654
1.16651
1.16649
1.16647
1.16646
1.16645
1.16644
1.16643
1.16642
1.16642
1.16642
1.16641
1.16641
1.16641
1.16641
1.16641
1.16641
1.16641
1.16641
1.1664
1.1664
1.1664
1.1664
1.1664
1.1664
1.1664
1.1664
1.1664
1.1664
1.1664
1.1664
1.1664
1.1664
1.1664
1.1664
1.1664
1.16641
1.16641
1.1664
1.1664
1.1664
1.1664
1.1664
1.1664
1.1664
1.1664
1.1664
1.1664
1.1664
1.1664
1.1664
1.1664
1.1664
1.1664
1.1664
1.1664
1.1664
1.1664
1.1664
1.1664
1.1664
1.1664
1.1664
1.1664
1.1664
1.1664
1.1664
1.1664
1.1664
1.1664
1.1664
1.1664
1.1664
1.1664
1.1664
1.1664
1.1664
1.1664
1.1664
1.16639
1.16639
1.16639
1.16639
1.16639
1.16639
1.16639
1.16639
1.16639
1.25936
1.25936
1.25936
1.25936
1.25936
1.25936
1.25937
1.25937
1.25937
1.25937
1.25937
1.25937
1.25937
1.25937
1.25937
1.25937
1.25937
1.25937
1.25937
1.25937
1.25936
1.25936
1.25936
1.25935
1.25935
1.25934
1.25933
1.25932
1.25931
1.25929
1.25927
1.25925
1.25922
1.25919
1.25915
1.25911
1.25906
1.259
1.25893
1.25884
1.25875
1.25864
1.25852
1.25837
1.25821
1.25802
1.25781
1.25757
1.2573
1.257
1.25667
1.2563
1.2559
1.25546
1.25499
1.25448
1.25395
1.25338
1.25279
1.25217
1.25152
1.25086
1.25018
1.24948
1.24876
1.24804
1.2473
1.24654
1.24578
1.24501
1.24423
1.24344
1.24264
1.24184
1.24102
1.24019
1.23935
1.23849
1.23763
1.23674
1.23584
1.2349
1.23393
1.23288
1.23172
1.23039
1.22882
1.22691
1.22459
1.22175
1.21833
1.21434
1.20981
1.20484
1.19961
1.19431
1.18919
1.18444
1.18023
1.17668
1.17382
1.17162
1.17
1.16886
1.16808
1.16756
1.16722
1.16699
1.16684
1.16674
1.16666
1.16661
1.16656
1.16653
1.1665
1.16648
1.16647
1.16645
1.16644
1.16644
1.16643
1.16642
1.16642
1.16642
1.16641
1.16641
1.16641
1.16641
1.16641
1.16641
1.16641
1.16641
1.1664
1.1664
1.1664
1.1664
1.1664
1.1664
1.1664
1.1664
1.1664
1.1664
1.1664
1.1664
1.1664
1.1664
1.1664
1.1664
1.16641
1.16641
1.1664
1.1664
1.1664
1.1664
1.1664
1.1664
1.1664
1.1664
1.1664
1.1664
1.1664
1.1664
1.1664
1.1664
1.1664
1.1664
1.1664
1.1664
1.1664
1.1664
1.1664
1.1664
1.1664
1.1664
1.1664
1.1664
1.1664
1.1664
1.1664
1.1664
1.1664
1.1664
1.1664
1.1664
1.1664
1.1664
1.1664
1.1664
1.1664
1.1664
1.1664
1.16639
1.16639
1.16639
1.16639
1.16639
1.16639
1.16639
1.16639
1.16639
1.25936
1.25936
1.25936
1.25936
1.25936
1.25936
1.25937
1.25937
1.25937
1.25937
1.25937
1.25937
1.25937
1.25937
1.25937
1.25937
1.25937
1.25936
1.25936
1.25936
1.25936
1.25935
1.25934
1.25933
1.25932
1.25931
1.2593
1.25928
1.25926
1.25923
1.2592
1.25916
1.25912
1.25906
1.259
1.25894
1.25885
1.25876
1.25865
1.25853
1.25839
1.25822
1.25804
1.25783
1.25759
1.25733
1.25703
1.2567
1.25634
1.25594
1.25551
1.25505
1.25456
1.25403
1.25348
1.25289
1.25229
1.25166
1.25102
1.25035
1.24968
1.24899
1.24828
1.24757
1.24685
1.24613
1.24539
1.24465
1.24391
1.24316
1.2424
1.24164
1.24087
1.2401
1.23932
1.23853
1.23774
1.23693
1.23611
1.23528
1.23443
1.23354
1.23261
1.23161
1.23049
1.2292
1.22767
1.22579
1.2235
1.22069
1.21732
1.21338
1.20892
1.20404
1.19891
1.19374
1.18874
1.18411
1.18002
1.17657
1.17378
1.17163
1.17005
1.16893
1.16815
1.16763
1.16729
1.16705
1.16689
1.16678
1.1667
1.16664
1.16659
1.16655
1.16652
1.1665
1.16648
1.16646
1.16645
1.16644
1.16643
1.16643
1.16642
1.16642
1.16642
1.16641
1.16641
1.16641
1.16641
1.16641
1.16641
1.16641
1.16641
1.1664
1.1664
1.1664
1.1664
1.1664
1.1664
1.1664
1.1664
1.1664
1.1664
1.1664
1.1664
1.1664
1.1664
1.1664
1.16641
1.16641
1.1664
1.1664
1.1664
1.1664
1.1664
1.1664
1.1664
1.1664
1.1664
1.1664
1.1664
1.1664
1.1664
1.1664
1.1664
1.1664
1.1664
1.1664
1.1664
1.1664
1.1664
1.1664
1.1664
1.1664
1.1664
1.1664
1.1664
1.1664
1.1664
1.1664
1.1664
1.1664
1.1664
1.1664
1.1664
1.1664
1.1664
1.1664
1.1664
1.1664
1.1664
1.16639
1.16639
1.16639
1.16639
1.16639
1.16639
1.16639
1.16639
1.16639
1.25936
1.25936
1.25936
1.25936
1.25936
1.25936
1.25937
1.25937
1.25937
1.25937
1.25937
1.25937
1.25937
1.25937
1.25937
1.25936
1.25936
1.25936
1.25935
1.25935
1.25934
1.25933
1.25932
1.2593
1.25928
1.25926
1.25923
1.2592
1.25916
1.25912
1.25907
1.25901
1.25894
1.25885
1.25876
1.25865
1.25852
1.25838
1.25821
1.25802
1.25781
1.25757
1.2573
1.257
1.25667
1.25631
1.25591
1.25548
1.25501
1.25452
1.254
1.25344
1.25287
1.25227
1.25165
1.25101
1.25036
1.24969
1.24902
1.24833
1.24764
1.24694
1.24624
1.24553
1.24482
1.2441
1.24339
1.24267
1.24195
1.24123
1.2405
1.23977
1.23904
1.23831
1.23757
1.23683
1.23608
1.23532
1.23455
1.23377
1.23296
1.23213
1.23125
1.2303
1.22922
1.22797
1.22647
1.22463
1.22237
1.2196
1.21628
1.2124
1.20802
1.20324
1.19823
1.19318
1.18831
1.18381
1.17984
1.17648
1.17377
1.17167
1.17012
1.16901
1.16824
1.16772
1.16737
1.16712
1.16695
1.16683
1.16674
1.16667
1.16662
1.16657
1.16654
1.16651
1.16649
1.16647
1.16646
1.16645
1.16644
1.16643
1.16643
1.16642
1.16642
1.16641
1.16641
1.16641
1.16641
1.16641
1.16641
1.16641
1.16641
1.1664
1.1664
1.1664
1.1664
1.1664
1.1664
1.1664
1.1664
1.1664
1.1664
1.1664
1.1664
1.1664
1.1664
1.1664
1.16641
1.16641
1.1664
1.1664
1.1664
1.1664
1.1664
1.1664
1.1664
1.1664
1.1664
1.1664
1.1664
1.1664
1.1664
1.1664
1.1664
1.1664
1.1664
1.1664
1.1664
1.1664
1.1664
1.1664
1.1664
1.1664
1.1664
1.1664
1.1664
1.1664
1.1664
1.1664
1.1664
1.1664
1.1664
1.1664
1.1664
1.1664
1.1664
1.1664
1.1664
1.1664
1.1664
1.16639
1.16639
1.16639
1.16639
1.16639
1.16639
1.16639
1.16639
1.16639
1.25936
1.25936
1.25936
1.25936
1.25936
1.25936
1.25937
1.25937
1.25937
1.25937
1.25937
1.25937
1.25936
1.25936
1.25936
1.25935
1.25935
1.25934
1.25933
1.25932
1.25931
1.25929
1.25926
1.25924
1.25921
1.25917
1.25912
1.25907
1.259
1.25893
1.25884
1.25874
1.25863
1.2585
1.25834
1.25817
1.25798
1.25775
1.2575
1.25723
1.25692
1.25657
1.2562
1.25579
1.25535
1.25487
1.25437
1.25384
1.25328
1.2527
1.2521
1.25148
1.25084
1.25019
1.24953
1.24886
1.24819
1.24751
1.24682
1.24614
1.24545
1.24476
1.24406
1.24337
1.24268
1.24199
1.2413
1.24061
1.23992
1.23924
1.23855
1.23786
1.23717
1.23648
1.23578
1.23508
1.23438
1.23367
1.23295
1.23222
1.23147
1.23068
1.22985
1.22895
1.22792
1.2267
1.22524
1.22344
1.22121
1.21848
1.21522
1.21141
1.20712
1.20245
1.19756
1.19265
1.18791
1.18354
1.17968
1.17642
1.17378
1.17174
1.17022
1.16912
1.16835
1.16782
1.16746
1.1672
1.16702
1.16689
1.16679
1.16671
1.16665
1.1666
1.16656
1.16653
1.16651
1.16649
1.16647
1.16646
1.16645
1.16644
1.16643
1.16643
1.16642
1.16642
1.16641
1.16641
1.16641
1.16641
1.16641
1.16641
1.16641
1.16641
1.1664
1.1664
1.1664
1.1664
1.1664
1.1664
1.1664
1.1664
1.1664
1.1664
1.1664
1.1664
1.1664
1.1664
1.16641
1.16641
1.1664
1.1664
1.1664
1.1664
1.1664
1.1664
1.1664
1.1664
1.1664
1.1664
1.1664
1.1664
1.1664
1.1664
1.1664
1.1664
1.1664
1.1664
1.1664
1.1664
1.1664
1.1664
1.1664
1.1664
1.1664
1.1664
1.1664
1.1664
1.1664
1.1664
1.1664
1.1664
1.1664
1.1664
1.1664
1.1664
1.1664
1.1664
1.1664
1.1664
1.1664
1.16639
1.16639
1.16639
1.16639
1.16639
1.16639
1.16639
1.16639
1.16639
1.25935
1.25936
1.25936
1.25936
1.25936
1.25936
1.25936
1.25936
1.25936
1.25936
1.25936
1.25936
1.25936
1.25935
1.25935
1.25934
1.25932
1.25931
1.25929
1.25927
1.25924
1.25921
1.25917
1.25912
1.25906
1.25899
1.25891
1.25882
1.25871
1.25859
1.25845
1.25828
1.2581
1.25789
1.25765
1.25738
1.25709
1.25676
1.25639
1.256
1.25557
1.25511
1.25461
1.25409
1.25354
1.25297
1.25238
1.25176
1.25114
1.2505
1.24984
1.24918
1.24852
1.24785
1.24717
1.2465
1.24582
1.24515
1.24447
1.2438
1.24313
1.24246
1.24179
1.24113
1.24047
1.23981
1.23916
1.2385
1.23785
1.2372
1.23655
1.23591
1.23526
1.23461
1.23396
1.23331
1.23265
1.23199
1.23132
1.23064
1.22994
1.22921
1.22842
1.22756
1.22658
1.22541
1.22398
1.22222
1.22004
1.21736
1.21416
1.21043
1.20624
1.20168
1.19692
1.19215
1.18755
1.18331
1.17957
1.1764
1.17383
1.17184
1.17034
1.16925
1.16848
1.16794
1.16756
1.1673
1.1671
1.16695
1.16684
1.16676
1.16669
1.16663
1.16659
1.16655
1.16652
1.1665
1.16648
1.16647
1.16645
1.16644
1.16644
1.16643
1.16642
1.16642
1.16642
1.16641
1.16641
1.16641
1.16641
1.16641
1.16641
1.16641
1.16641
1.1664
1.1664
1.1664
1.1664
1.1664
1.1664
1.1664
1.1664
1.1664
1.1664
1.1664
1.1664
1.1664
1.16641
1.16641
1.1664
1.1664
1.1664
1.1664
1.1664
1.1664
1.1664
1.1664
1.1664
1.1664
1.1664
1.1664
1.1664
1.1664
1.1664
1.1664
1.1664
1.1664
1.1664
1.1664
1.1664
1.1664
1.1664
1.1664
1.1664
1.1664
1.1664
1.1664
1.1664
1.1664
1.1664
1.1664
1.1664
1.1664
1.1664
1.1664
1.1664
1.1664
1.1664
1.1664
1.1664
1.16639
1.16639
1.16639
1.16639
1.16639
1.16639
1.16639
1.16639
1.16639
1.25935
1.25936
1.25936
1.25936
1.25936
1.25936
1.25936
1.25936
1.25936
1.25936
1.25935
1.25935
1.25934
1.25933
1.25931
1.2593
1.25927
1.25924
1.25921
1.25916
1.25911
1.25905
1.25897
1.25888
1.25878
1.25866
1.25853
1.25837
1.25819
1.25798
1.25775
1.25749
1.25719
1.25687
1.25651
1.25612
1.25569
1.25523
1.25473
1.25421
1.25366
1.25309
1.25249
1.25187
1.25125
1.2506
1.24995
1.24929
1.24863
1.24796
1.24729
1.24662
1.24595
1.24528
1.24462
1.24396
1.2433
1.24265
1.242
1.24135
1.24071
1.24008
1.23945
1.23882
1.2382
1.23758
1.23697
1.23635
1.23575
1.23514
1.23453
1.23393
1.23333
1.23273
1.23212
1.23152
1.23091
1.23029
1.22967
1.22904
1.22839
1.22771
1.22697
1.22616
1.22522
1.22409
1.22271
1.22099
1.21886
1.21624
1.21311
1.20948
1.20538
1.20095
1.19633
1.19169
1.18724
1.18313
1.1795
1.17642
1.17392
1.17197
1.17049
1.16941
1.16864
1.16808
1.16769
1.1674
1.16719
1.16703
1.16691
1.16681
1.16673
1.16667
1.16662
1.16658
1.16655
1.16652
1.1665
1.16648
1.16646
1.16645
1.16644
1.16644
1.16643
1.16642
1.16642
1.16642
1.16641
1.16641
1.16641
1.16641
1.16641
1.16641
1.16641
1.16641
1.16641
1.1664
1.1664
1.1664
1.1664
1.1664
1.1664
1.1664
1.1664
1.1664
1.1664
1.16641
1.16641
1.16641
1.16641
1.1664
1.1664
1.1664
1.1664
1.1664
1.1664
1.1664
1.1664
1.1664
1.1664
1.1664
1.1664
1.1664
1.1664
1.1664
1.1664
1.1664
1.1664
1.1664
1.1664
1.1664
1.1664
1.1664
1.1664
1.1664
1.1664
1.1664
1.1664
1.1664
1.1664
1.1664
1.1664
1.1664
1.1664
1.1664
1.1664
1.1664
1.1664
1.1664
1.1664
1.16639
1.16639
1.16639
1.16639
1.16639
1.16639
1.16639
1.16639
1.16639
1.25935
1.25936
1.25936
1.25936
1.25936
1.25936
1.25936
1.25936
1.25935
1.25934
1.25933
1.25932
1.2593
1.25928
1.25924
1.25921
1.25916
1.2591
1.25903
1.25894
1.25884
1.25873
1.25859
1.25843
1.25825
1.25804
1.25781
1.25754
1.25725
1.25691
1.25655
1.25614
1.2557
1.25523
1.25472
1.25419
1.25362
1.25303
1.25242
1.2518
1.25115
1.2505
1.24984
1.24917
1.2485
1.24783
1.24716
1.24649
1.24582
1.24516
1.2445
1.24384
1.24319
1.24255
1.24192
1.24129
1.24066
1.24005
1.23944
1.23883
1.23823
1.23764
1.23705
1.23647
1.23589
1.23532
1.23475
1.23418
1.23362
1.23305
1.2325
1.23194
1.23138
1.23083
1.23027
1.22971
1.22915
1.22858
1.22801
1.22743
1.22682
1.22619
1.2255
1.22473
1.22384
1.22276
1.22142
1.21976
1.21768
1.21514
1.21209
1.20855
1.20457
1.20027
1.19579
1.1913
1.18698
1.183
1.17948
1.17649
1.17406
1.17214
1.17068
1.1696
1.16881
1.16824
1.16783
1.16753
1.1673
1.16712
1.16698
1.16687
1.16679
1.16671
1.16666
1.16661
1.16657
1.16654
1.16651
1.16649
1.16648
1.16646
1.16645
1.16644
1.16643
1.16643
1.16642
1.16642
1.16642
1.16641
1.16641
1.16641
1.16641
1.16641
1.16641
1.16641
1.16641
1.16641
1.1664
1.1664
1.1664
1.1664
1.1664
1.1664
1.1664
1.1664
1.1664
1.16641
1.16641
1.16641
1.16641
1.1664
1.1664
1.1664
1.1664
1.1664
1.1664
1.1664
1.1664
1.1664
1.1664
1.1664
1.1664
1.1664
1.1664
1.1664
1.1664
1.1664
1.1664
1.1664
1.1664
1.1664
1.1664
1.1664
1.1664
1.1664
1.1664
1.1664
1.1664
1.1664
1.1664
1.1664
1.1664
1.1664
1.1664
1.1664
1.1664
1.1664
1.1664
1.1664
1.1664
1.16639
1.16639
1.16639
1.16639
1.16639
1.16639
1.16639
1.16639
1.16639
1.25935
1.25935
1.25936
1.25936
1.25936
1.25935
1.25935
1.25934
1.25933
1.25931
1.25928
1.25925
1.25921
1.25915
1.25908
1.259
1.2589
1.25878
1.25865
1.25848
1.2583
1.25808
1.25783
1.25755
1.25724
1.25689
1.2565
1.25607
1.2556
1.2551
1.25456
1.254
1.2534
1.25279
1.25215
1.25149
1.25083
1.25015
1.24947
1.24879
1.2481
1.24742
1.24674
1.24606
1.24539
1.24473
1.24407
1.24342
1.24278
1.24215
1.24153
1.24091
1.2403
1.2397
1.23911
1.23852
1.23795
1.23738
1.23681
1.23625
1.2357
1.23516
1.23462
1.23408
1.23355
1.23303
1.23251
1.23199
1.23147
1.23096
1.23045
1.22994
1.22943
1.22892
1.22841
1.2279
1.22739
1.22687
1.22634
1.22581
1.22525
1.22466
1.22403
1.2233
1.22246
1.22142
1.22014
1.21853
1.21652
1.21405
1.2111
1.20766
1.20381
1.19965
1.19531
1.19097
1.1868
1.18295
1.17953
1.17662
1.17424
1.17235
1.17091
1.16982
1.16902
1.16843
1.16799
1.16767
1.16742
1.16723
1.16707
1.16695
1.16685
1.16677
1.1667
1.16665
1.1666
1.16656
1.16653
1.16651
1.16649
1.16647
1.16646
1.16645
1.16644
1.16643
1.16643
1.16642
1.16642
1.16642
1.16641
1.16641
1.16641
1.16641
1.16641
1.16641
1.16641
1.16641
1.16641
1.1664
1.1664
1.1664
1.1664
1.1664
1.1664
1.1664
1.16641
1.16641
1.16641
1.16641
1.16641
1.1664
1.1664
1.1664
1.1664
1.1664
1.1664
1.1664
1.1664
1.1664
1.1664
1.1664
1.1664
1.1664
1.1664
1.1664
1.1664
1.1664
1.1664
1.1664
1.1664
1.1664
1.1664
1.1664
1.1664
1.1664
1.1664
1.1664
1.1664
1.1664
1.1664
1.1664
1.1664
1.1664
1.1664
1.1664
1.1664
1.1664
1.1664
1.1664
1.1664
1.1664
1.16639
1.16639
1.16639
1.16639
1.16639
1.16639
1.16639
1.16639
1.25935
1.25935
1.25936
1.25935
1.25935
1.25934
1.25932
1.25929
1.25926
1.25921
1.25915
1.25907
1.25897
1.25885
1.2587
1.25853
1.25832
1.25809
1.25782
1.25751
1.25716
1.25677
1.25634
1.25587
1.25535
1.2548
1.25421
1.25359
1.25295
1.25228
1.2516
1.2509
1.2502
1.24949
1.24878
1.24807
1.24736
1.24666
1.24597
1.24529
1.24461
1.24395
1.24329
1.24265
1.24202
1.24139
1.24078
1.24018
1.23959
1.239
1.23843
1.23787
1.23731
1.23677
1.23623
1.2357
1.23518
1.23466
1.23415
1.23365
1.23315
1.23266
1.23217
1.23169
1.23121
1.23073
1.23026
1.22979
1.22932
1.22886
1.2284
1.22794
1.22747
1.22701
1.22655
1.22609
1.22562
1.22515
1.22467
1.22418
1.22367
1.22313
1.22254
1.22187
1.22107
1.22009
1.21886
1.21731
1.21538
1.213
1.21014
1.20683
1.20312
1.1991
1.19492
1.19073
1.1867
1.18297
1.17965
1.17682
1.17448
1.17262
1.17117
1.17008
1.16926
1.16864
1.16818
1.16783
1.16756
1.16734
1.16717
1.16703
1.16692
1.16683
1.16675
1.16669
1.16664
1.16659
1.16656
1.16653
1.16651
1.16649
1.16647
1.16646
1.16645
1.16644
1.16643
1.16643
1.16642
1.16642
1.16642
1.16641
1.16641
1.16641
1.16641
1.16641
1.16641
1.16641
1.16641
1.16641
1.16641
1.1664
1.1664
1.1664
1.1664
1.16641
1.16641
1.16641
1.16641
1.16641
1.16641
1.1664
1.1664
1.1664
1.1664
1.1664
1.1664
1.1664
1.1664
1.1664
1.1664
1.1664
1.1664
1.1664
1.1664
1.1664
1.1664
1.1664
1.1664
1.1664
1.1664
1.1664
1.1664
1.1664
1.1664
1.1664
1.1664
1.1664
1.1664
1.1664
1.1664
1.1664
1.1664
1.1664
1.1664
1.1664
1.1664
1.1664
1.1664
1.1664
1.1664
1.1664
1.16639
1.16639
1.16639
1.16639
1.16639
1.16639
1.16639
1.16639