/*--------------------------------*- C++ -*----------------------------------*\
| =========                 |                                                 |
| \\      /  F ield         | OpenFOAM: The Open Source CFD Toolbox           |
|  \\    /   O peration     | Version:  1.7.0                                 |
|   \\  /    A nd           | Web:      www.OpenFOAM.com                      |
|    \\/     M anipulation  |                                                 |
\*---------------------------------------------------------------------------*/
FoamFile
{
    version     2.0;
    format      ascii;
    class       volScalarField;
    location    "10000";
    object      T;
}
// * * * * * * * * * * * * * * * * * * * * * * * * * * * * * * * * * * * * * //

dimensions      [0 0 0 1 0 0 0];

internalField   nonuniform List<scalar> 
14800
(
276
275.999
275.999
275.999
275.999
275.999
275.999
275.999
275.999
275.999
275.999
275.999
275.999
275.999
275.999
275.999
275.999
276
276
276
276
276
276
276
276
276
276
276
276
276.001
276.001
276.001
276.002
276.002
276.003
276.004
276.005
276.006
276.008
276.011
276.014
276.017
276.022
276.028
276.035
276.044
276.055
276.068
276.085
276.105
276.129
276.158
276.193
276.235
276.286
276.345
276.414
276.495
276.588
276.695
276.816
276.952
277.102
277.267
277.446
277.638
277.844
278.06
278.287
278.524
278.769
279.022
279.28
279.544
279.812
280.082
280.355
280.629
280.903
281.178
281.451
281.723
281.993
282.261
282.526
282.788
283.047
283.303
283.556
283.806
284.052
284.295
284.534
284.77
285.001
285.229
285.452
285.671
285.885
286.096
286.302
286.504
286.702
286.896
287.086
287.273
287.456
287.635
287.811
287.983
288.152
288.317
288.479
288.638
288.793
288.946
289.095
289.241
289.384
289.524
289.662
289.797
289.929
290.058
290.185
290.309
290.431
290.55
290.667
290.781
290.894
291.004
291.112
291.218
291.322
291.423
291.523
291.621
291.717
291.812
291.904
291.995
292.085
292.173
292.26
292.345
292.43
292.515
292.599
292.683
292.768
292.854
292.94
293.027
293.116
293.207
293.298
293.391
293.486
293.582
293.678
293.775
293.873
293.97
294.067
294.164
294.26
294.355
294.449
294.541
294.632
294.721
294.809
294.895
294.979
295.061
295.142
295.221
295.298
295.373
295.446
295.518
295.588
295.656
295.722
295.787
295.85
295.911
295.971
296.029
296.086
296.141
296.195
296.248
296.299
296.35
296.399
296.448
296.496
296.539
276
275.999
275.999
275.999
275.999
275.999
275.999
275.999
275.999
275.999
275.999
275.999
275.999
275.999
275.999
275.999
275.999
276
276
276
276
276
276
276
276
276
276
276
276
276.001
276.001
276.001
276.002
276.002
276.003
276.004
276.006
276.007
276.009
276.012
276.015
276.019
276.025
276.031
276.039
276.049
276.061
276.075
276.093
276.114
276.14
276.171
276.209
276.253
276.305
276.367
276.439
276.522
276.618
276.727
276.85
276.987
277.138
277.304
277.484
277.676
277.881
278.097
278.324
278.56
278.804
279.055
279.312
279.575
279.841
280.11
280.382
280.655
280.928
281.201
281.473
281.743
282.012
282.279
282.543
282.805
283.063
283.318
283.57
283.819
284.065
284.307
284.546
284.781
285.012
285.238
285.461
285.679
285.893
286.103
286.309
286.511
286.708
286.902
287.092
287.279
287.461
287.64
287.816
287.988
288.157
288.322
288.483
288.642
288.797
288.949
289.098
289.244
289.387
289.527
289.665
289.799
289.931
290.06
290.187
290.311
290.433
290.552
290.669
290.783
290.896
291.006
291.114
291.219
291.323
291.425
291.525
291.623
291.719
291.813
291.905
291.996
292.086
292.174
292.261
292.346
292.431
292.516
292.6
292.684
292.769
292.854
292.941
293.028
293.117
293.207
293.299
293.392
293.486
293.582
293.678
293.775
293.873
293.97
294.067
294.164
294.26
294.355
294.448
294.541
294.632
294.721
294.809
294.894
294.979
295.061
295.141
295.22
295.297
295.372
295.446
295.517
295.587
295.655
295.721
295.786
295.849
295.91
295.97
296.028
296.085
296.14
296.194
296.247
296.299
296.349
296.399
296.448
296.495
296.538
276
275.999
275.999
275.999
275.999
275.999
275.999
275.999
275.999
275.999
275.999
275.999
275.999
275.999
275.999
275.999
275.999
276
276
276
276
276
276
276
276
276
276
276
276.001
276.001
276.001
276.002
276.002
276.003
276.004
276.006
276.007
276.009
276.012
276.015
276.019
276.025
276.031
276.039
276.048
276.06
276.074
276.091
276.112
276.137
276.166
276.201
276.243
276.292
276.35
276.417
276.494
276.583
276.683
276.797
276.924
277.064
277.218
277.386
277.566
277.759
277.963
278.178
278.403
278.637
278.879
279.128
279.382
279.642
279.905
280.172
280.44
280.71
280.981
281.251
281.52
281.789
282.055
282.32
282.582
282.841
283.098
283.351
283.601
283.849
284.093
284.333
284.571
284.804
285.034
285.26
285.481
285.698
285.911
286.12
286.325
286.526
286.723
286.916
287.106
287.291
287.473
287.652
287.827
287.998
288.166
288.331
288.492
288.65
288.805
288.957
289.105
289.251
289.394
289.534
289.671
289.805
289.937
290.066
290.192
290.316
290.437
290.556
290.673
290.787
290.899
291.009
291.117
291.223
291.326
291.428
291.528
291.625
291.721
291.815
291.908
291.999
292.088
292.176
292.263
292.348
292.433
292.518
292.602
292.686
292.771
292.856
292.942
293.029
293.118
293.208
293.3
293.393
293.487
293.582
293.679
293.775
293.873
293.97
294.067
294.164
294.259
294.354
294.448
294.54
294.631
294.72
294.808
294.894
294.978
295.06
295.14
295.219
295.296
295.371
295.444
295.516
295.586
295.654
295.72
295.785
295.848
295.909
295.969
296.027
296.084
296.139
296.193
296.246
296.297
296.348
296.398
296.446
296.494
296.537
276
275.999
275.999
275.999
275.999
275.999
275.999
275.999
275.999
275.999
275.999
275.999
275.999
275.999
275.999
275.999
276
276
276
276
276
276
276
276
276
276
276
276.001
276.001
276.001
276.002
276.003
276.004
276.005
276.006
276.008
276.01
276.013
276.017
276.021
276.027
276.034
276.042
276.052
276.064
276.079
276.097
276.118
276.143
276.173
276.209
276.251
276.299
276.356
276.421
276.496
276.581
276.677
276.785
276.905
277.037
277.182
277.339
277.509
277.69
277.883
278.087
278.3
278.522
278.753
278.992
279.237
279.487
279.743
280.002
280.264
280.529
280.794
281.06
281.327
281.592
281.857
282.12
282.381
282.64
282.896
283.15
283.401
283.648
283.893
284.135
284.373
284.608
284.84
285.068
285.292
285.511
285.727
285.939
286.146
286.35
286.549
286.745
286.937
287.126
287.31
287.491
287.669
287.843
288.014
288.181
288.345
288.506
288.663
288.817
288.968
289.117
289.262
289.404
289.543
289.68
289.814
289.945
290.074
290.2
290.323
290.444
290.563
290.679
290.793
290.905
291.015
291.122
291.228
291.331
291.433
291.532
291.63
291.725
291.819
291.912
292.002
292.092
292.179
292.266
292.351
292.436
292.52
292.604
292.688
292.773
292.858
292.944
293.031
293.12
293.21
293.301
293.394
293.488
293.583
293.679
293.776
293.873
293.97
294.067
294.163
294.259
294.354
294.447
294.539
294.63
294.719
294.807
294.892
294.976
295.059
295.139
295.218
295.295
295.37
295.443
295.514
295.584
295.652
295.718
295.783
295.846
295.907
295.967
296.025
296.082
296.137
296.191
296.244
296.296
296.346
296.396
296.445
296.492
296.535
276
275.999
275.999
275.999
275.999
275.999
275.999
275.999
275.999
275.999
275.999
275.999
275.999
275.999
275.999
276
276
276
276
276
276
276
276
276
276
276.001
276.001
276.001
276.002
276.002
276.003
276.004
276.006
276.007
276.01
276.012
276.016
276.02
276.025
276.031
276.039
276.048
276.06
276.073
276.089
276.109
276.132
276.159
276.191
276.229
276.273
276.323
276.382
276.448
276.523
276.608
276.703
276.808
276.924
277.052
277.19
277.34
277.501
277.673
277.855
278.047
278.249
278.46
278.679
278.906
279.14
279.38
279.626
279.876
280.13
280.386
280.645
280.905
281.166
281.427
281.688
281.947
282.206
282.463
282.717
282.969
283.219
283.466
283.711
283.952
284.191
284.426
284.658
284.887
285.113
285.334
285.552
285.765
285.975
286.181
286.383
286.58
286.775
286.965
287.152
287.336
287.515
287.692
287.865
288.035
288.201
288.364
288.524
288.68
288.834
288.984
289.131
289.276
289.417
289.556
289.692
289.825
289.956
290.084
290.21
290.333
290.454
290.572
290.688
290.802
290.913
291.022
291.13
291.235
291.338
291.439
291.538
291.636
291.731
291.825
291.917
292.007
292.096
292.184
292.27
292.356
292.44
292.524
292.608
292.692
292.776
292.861
292.947
293.034
293.122
293.212
293.303
293.396
293.489
293.584
293.68
293.777
293.873
293.97
294.067
294.163
294.259
294.353
294.446
294.538
294.629
294.718
294.805
294.891
294.975
295.057
295.137
295.216
295.293
295.368
295.441
295.512
295.582
295.65
295.716
295.781
295.844
295.905
295.965
296.023
296.079
296.135
296.189
296.241
296.293
296.344
296.393
296.442
296.49
296.533
276
275.999
275.999
275.999
275.999
275.999
275.999
275.999
275.999
275.999
275.999
275.999
275.999
275.999
275.999
276
276
276
276
276
276
276
276
276.001
276.001
276.001
276.002
276.002
276.003
276.004
276.005
276.007
276.009
276.012
276.015
276.019
276.024
276.03
276.038
276.047
276.058
276.071
276.087
276.106
276.128
276.154
276.184
276.22
276.261
276.309
276.363
276.425
276.495
276.573
276.66
276.756
276.862
276.977
277.102
277.237
277.382
277.537
277.701
277.875
278.057
278.249
278.449
278.657
278.872
279.094
279.322
279.556
279.796
280.039
280.286
280.536
280.788
281.041
281.296
281.551
281.805
282.059
282.312
282.563
282.813
283.06
283.305
283.548
283.788
284.025
284.26
284.492
284.721
284.946
285.168
285.387
285.602
285.813
286.02
286.224
286.423
286.619
286.811
287
287.185
287.367
287.546
287.721
287.892
288.06
288.226
288.387
288.546
288.702
288.854
289.003
289.15
289.293
289.434
289.572
289.708
289.84
289.97
290.098
290.223
290.345
290.465
290.583
290.699
290.812
290.923
291.032
291.139
291.243
291.346
291.447
291.546
291.643
291.738
291.832
291.923
292.014
292.102
292.19
292.276
292.361
292.445
292.529
292.613
292.696
292.78
292.865
292.95
293.037
293.125
293.215
293.305
293.398
293.491
293.586
293.681
293.778
293.874
293.971
294.067
294.163
294.258
294.352
294.445
294.537
294.628
294.716
294.804
294.889
294.973
295.055
295.135
295.213
295.29
295.365
295.438
295.51
295.579
295.647
295.713
295.778
295.841
295.902
295.962
296.02
296.076
296.132
296.186
296.238
296.29
296.341
296.39
296.439
296.487
296.53
276
275.999
275.999
275.999
275.999
275.999
275.999
275.999
275.999
275.999
275.999
275.999
275.999
275.999
276
276
276
276
276
276
276
276
276.001
276.001
276.002
276.002
276.003
276.004
276.005
276.007
276.009
276.012
276.015
276.019
276.025
276.031
276.038
276.047
276.059
276.072
276.087
276.106
276.128
276.154
276.184
276.219
276.26
276.306
276.359
276.419
276.486
276.561
276.644
276.735
276.834
276.942
277.059
277.185
277.319
277.461
277.612
277.771
277.938
278.113
278.296
278.485
278.682
278.886
279.097
279.313
279.535
279.762
279.994
280.23
280.469
280.712
280.956
281.202
281.449
281.696
281.944
282.191
282.437
282.682
282.926
283.167
283.407
283.644
283.879
284.112
284.342
284.57
284.795
285.016
285.235
285.45
285.662
285.87
286.074
286.275
286.472
286.665
286.855
287.042
287.225
287.405
287.581
287.755
287.925
288.091
288.255
288.415
288.573
288.727
288.878
289.027
289.172
289.315
289.454
289.591
289.726
289.858
289.987
290.114
290.238
290.36
290.479
290.597
290.711
290.824
290.935
291.043
291.149
291.254
291.356
291.456
291.555
291.652
291.746
291.84
291.931
292.021
292.109
292.196
292.282
292.367
292.451
292.535
292.618
292.701
292.785
292.869
292.955
293.041
293.129
293.218
293.308
293.4
293.493
293.588
293.683
293.779
293.875
293.971
294.067
294.163
294.258
294.351
294.444
294.536
294.626
294.715
294.802
294.887
294.97
295.052
295.132
295.211
295.287
295.362
295.435
295.506
295.576
295.644
295.71
295.774
295.837
295.898
295.958
296.016
296.073
296.128
296.182
296.235
296.286
296.337
296.387
296.435
296.483
296.526
276
275.999
275.999
275.999
275.999
275.999
275.999
275.999
275.999
275.999
275.999
275.999
275.999
276
276
276
276
276
276
276
276.001
276.001
276.002
276.002
276.003
276.004
276.005
276.007
276.009
276.012
276.016
276.02
276.025
276.032
276.04
276.049
276.061
276.074
276.091
276.11
276.133
276.159
276.19
276.226
276.266
276.313
276.366
276.426
276.492
276.566
276.647
276.736
276.833
276.938
277.05
277.17
277.297
277.431
277.573
277.722
277.878
278.04
278.209
278.385
278.566
278.753
278.947
279.146
279.351
279.561
279.776
279.996
280.219
280.447
280.678
280.911
281.147
281.385
281.623
281.863
282.102
282.342
282.581
282.819
283.055
283.29
283.524
283.755
283.985
284.212
284.437
284.66
284.88
285.097
285.312
285.523
285.731
285.935
286.136
286.334
286.528
286.719
286.906
287.09
287.271
287.449
287.623
287.794
287.962
288.127
288.289
288.448
288.604
288.757
288.907
289.054
289.198
289.339
289.478
289.614
289.747
289.878
290.006
290.132
290.256
290.377
290.496
290.612
290.726
290.839
290.948
291.056
291.162
291.266
291.368
291.468
291.566
291.662
291.756
291.849
291.94
292.03
292.118
292.204
292.29
292.374
292.458
292.541
292.624
292.707
292.791
292.875
292.96
293.046
293.133
293.222
293.312
293.403
293.496
293.59
293.685
293.78
293.876
293.972
294.067
294.162
294.257
294.351
294.443
294.534
294.624
294.713
294.799
294.884
294.968
295.049
295.129
295.207
295.284
295.359
295.431
295.503
295.572
295.64
295.706
295.77
295.833
295.894
295.954
296.012
296.069
296.124
296.178
296.231
296.282
296.333
296.382
296.431
296.479
296.522
276
275.999
275.999
275.999
275.999
275.999
275.999
275.999
275.999
275.999
275.999
276
276
276
276
276
276
276
276.001
276.001
276.001
276.002
276.003
276.004
276.006
276.007
276.01
276.013
276.016
276.021
276.027
276.034
276.042
276.052
276.064
276.079
276.096
276.117
276.14
276.168
276.2
276.237
276.28
276.328
276.382
276.443
276.511
276.585
276.667
276.756
276.852
276.956
277.066
277.183
277.307
277.437
277.574
277.716
277.865
278.018
278.178
278.342
278.512
278.686
278.866
279.05
279.239
279.433
279.631
279.834
280.042
280.253
280.469
280.687
280.909
281.133
281.36
281.588
281.818
282.048
282.279
282.51
282.741
282.971
283.201
283.429
283.655
283.88
284.103
284.325
284.544
284.762
284.976
285.189
285.399
285.605
285.809
286.01
286.207
286.401
286.592
286.779
286.964
287.145
287.323
287.498
287.67
287.839
288.005
288.168
288.328
288.485
288.639
288.79
288.939
289.084
289.227
289.367
289.504
289.639
289.772
289.901
290.029
290.154
290.276
290.396
290.514
290.63
290.743
290.855
290.964
291.071
291.176
291.28
291.381
291.48
291.578
291.673
291.767
291.86
291.95
292.039
292.127
292.214
292.299
292.383
292.466
292.549
292.632
292.714
292.797
292.881
292.965
293.051
293.138
293.226
293.316
293.407
293.499
293.592
293.687
293.781
293.877
293.972
294.067
294.162
294.256
294.349
294.442
294.533
294.622
294.71
294.797
294.882
294.965
295.046
295.126
295.204
295.28
295.355
295.427
295.498
295.568
295.636
295.702
295.766
295.829
295.89
295.949
296.007
296.064
296.119
296.173
296.226
296.277
296.328
296.378
296.427
296.474
296.517
276
275.999
275.999
275.999
275.999
275.999
275.999
275.999
275.999
275.999
276
276
276
276
276
276
276.001
276.001
276.001
276.002
276.003
276.004
276.006
276.008
276.01
276.013
276.018
276.023
276.029
276.036
276.046
276.057
276.07
276.086
276.104
276.126
276.152
276.182
276.216
276.255
276.3
276.351
276.408
276.471
276.541
276.618
276.702
276.793
276.89
276.994
277.105
277.222
277.344
277.473
277.606
277.745
277.889
278.038
278.19
278.348
278.509
278.674
278.843
279.015
279.192
279.372
279.556
279.744
279.935
280.131
280.33
280.533
280.739
280.948
281.16
281.375
281.592
281.81
282.03
282.251
282.473
282.695
282.918
283.139
283.361
283.581
283.8
284.018
284.234
284.449
284.663
284.874
285.083
285.29
285.495
285.697
285.896
286.092
286.285
286.476
286.663
286.847
287.028
287.206
287.381
287.554
287.723
287.889
288.053
288.214
288.372
288.526
288.679
288.828
288.975
289.118
289.26
289.398
289.534
289.668
289.799
289.927
290.054
290.177
290.299
290.418
290.535
290.65
290.763
290.873
290.982
291.088
291.192
291.295
291.396
291.494
291.591
291.686
291.78
291.872
291.962
292.051
292.138
292.224
292.308
292.392
292.475
292.558
292.64
292.722
292.805
292.888
292.972
293.057
293.143
293.231
293.32
293.411
293.502
293.595
293.689
293.783
293.878
293.973
294.068
294.162
294.256
294.348
294.44
294.531
294.62
294.708
294.794
294.878
294.961
295.042
295.122
295.2
295.276
295.35
295.423
295.494
295.563
295.631
295.697
295.761
295.824
295.885
295.944
296.002
296.059
296.114
296.168
296.221
296.272
296.323
296.372
296.421
296.469
296.512
276
275.999
275.999
275.999
275.999
275.999
275.999
275.999
275.999
276
276
276
276
276
276
276.001
276.001
276.002
276.003
276.004
276.006
276.008
276.011
276.015
276.019
276.025
276.031
276.04
276.05
276.062
276.077
276.095
276.115
276.139
276.167
276.2
276.237
276.28
276.328
276.383
276.443
276.51
276.584
276.665
276.752
276.846
276.946
277.053
277.165
277.283
277.406
277.535
277.668
277.805
277.946
278.092
278.241
278.393
278.548
278.707
278.868
279.033
279.199
279.369
279.541
279.717
279.895
280.076
280.26
280.447
280.638
280.832
281.028
281.228
281.43
281.634
281.841
282.049
282.259
282.47
282.683
282.896
283.109
283.322
283.534
283.746
283.958
284.168
284.377
284.585
284.792
284.997
285.2
285.401
285.6
285.797
285.991
286.183
286.371
286.557
286.741
286.921
287.099
287.273
287.445
287.615
287.781
287.945
288.106
288.264
288.419
288.572
288.722
288.87
289.014
289.156
289.296
289.433
289.567
289.699
289.829
289.956
290.081
290.204
290.324
290.442
290.558
290.672
290.784
290.893
291.001
291.107
291.21
291.312
291.412
291.51
291.606
291.701
291.794
291.885
291.975
292.063
292.15
292.235
292.319
292.403
292.485
292.567
292.649
292.731
292.813
292.895
292.979
293.064
293.149
293.236
293.325
293.415
293.506
293.598
293.691
293.785
293.879
293.974
294.068
294.162
294.255
294.347
294.438
294.529
294.617
294.705
294.791
294.875
294.957
295.038
295.118
295.195
295.271
295.345
295.418
295.489
295.558
295.625
295.691
295.755
295.818
295.879
295.938
295.996
296.053
296.108
296.162
296.215
296.266
296.317
296.366
296.415
296.463
296.506
276
275.999
275.999
275.999
275.999
275.999
275.999
276
276
276
276
276
276
276.001
276.001
276.002
276.003
276.005
276.006
276.009
276.012
276.016
276.021
276.027
276.035
276.045
276.056
276.07
276.087
276.106
276.13
276.157
276.188
276.224
276.266
276.313
276.365
276.425
276.49
276.562
276.641
276.727
276.819
276.917
277.022
277.132
277.247
277.368
277.493
277.623
277.756
277.894
278.035
278.178
278.325
278.474
278.626
278.78
278.936
279.094
279.254
279.415
279.579
279.744
279.912
280.081
280.252
280.426
280.603
280.781
280.963
281.147
281.334
281.523
281.715
281.909
282.105
282.303
282.503
282.704
282.906
283.109
283.313
283.517
283.721
283.924
284.127
284.329
284.531
284.732
284.931
285.129
285.326
285.521
285.714
285.905
286.094
286.281
286.465
286.646
286.825
287.002
287.175
287.346
287.515
287.681
287.844
288.005
288.163
288.319
288.472
288.622
288.77
288.915
289.057
289.198
289.335
289.47
289.603
289.734
289.862
289.988
290.111
290.232
290.352
290.469
290.583
290.696
290.807
290.915
291.022
291.127
291.23
291.331
291.43
291.527
291.623
291.717
291.809
291.9
291.989
292.076
292.162
292.247
292.331
292.414
292.496
292.577
292.659
292.74
292.822
292.904
292.987
293.071
293.156
293.242
293.33
293.42
293.51
293.602
293.694
293.787
293.881
293.974
294.068
294.161
294.254
294.346
294.437
294.526
294.615
294.702
294.787
294.871
294.953
295.034
295.113
295.19
295.266
295.34
295.412
295.483
295.552
295.619
295.685
295.749
295.812
295.873
295.932
295.99
296.047
296.102
296.156
296.208
296.26
296.31
296.36
296.409
296.457
296.5
276
275.999
275.999
275.999
275.999
275.999
276
276
276
276
276
276.001
276.001
276.002
276.003
276.005
276.007
276.009
276.013
276.017
276.023
276.03
276.039
276.05
276.064
276.08
276.099
276.122
276.149
276.18
276.215
276.256
276.303
276.355
276.414
276.479
276.551
276.63
276.715
276.807
276.905
277.009
277.119
277.234
277.354
277.478
277.606
277.739
277.874
278.012
278.153
278.297
278.443
278.59
278.739
278.89
279.042
279.195
279.35
279.505
279.662
279.82
279.979
280.139
280.3
280.462
280.627
280.793
280.961
281.131
281.303
281.477
281.654
281.833
282.014
282.198
282.383
282.571
282.76
282.951
283.143
283.336
283.53
283.724
283.918
284.113
284.307
284.501
284.695
284.888
285.08
285.271
285.461
285.65
285.837
286.022
286.205
286.386
286.565
286.742
286.916
287.088
287.258
287.425
287.59
287.753
287.913
288.07
288.225
288.378
288.528
288.676
288.821
288.964
289.104
289.242
289.378
289.511
289.642
289.771
289.897
290.022
290.144
290.264
290.381
290.497
290.611
290.722
290.832
290.94
291.045
291.149
291.251
291.351
291.449
291.546
291.641
291.734
291.826
291.916
292.004
292.091
292.177
292.261
292.344
292.426
292.508
292.589
292.67
292.75
292.831
292.913
292.995
293.079
293.163
293.249
293.336
293.425
293.515
293.605
293.697
293.79
293.882
293.975
294.068
294.161
294.253
294.344
294.435
294.524
294.612
294.698
294.783
294.867
294.949
295.029
295.108
295.185
295.261
295.334
295.406
295.477
295.546
295.613
295.679
295.743
295.805
295.866
295.925
295.983
296.04
296.095
296.149
296.201
296.253
296.303
296.353
296.402
296.45
296.492
276
275.999
275.999
275.999
276
276
276
276
276
276.001
276.001
276.002
276.003
276.005
276.007
276.01
276.014
276.019
276.026
276.035
276.045
276.058
276.074
276.093
276.116
276.142
276.174
276.21
276.251
276.299
276.352
276.412
276.478
276.551
276.631
276.717
276.81
276.91
277.015
277.126
277.243
277.364
277.489
277.618
277.75
277.885
278.023
278.163
278.306
278.449
278.595
278.741
278.888
279.037
279.185
279.335
279.485
279.636
279.787
279.939
280.091
280.243
280.396
280.55
280.704
280.859
281.015
281.173
281.332
281.493
281.656
281.82
281.987
282.155
282.326
282.499
282.673
282.85
283.029
283.209
283.39
283.573
283.757
283.942
284.127
284.312
284.498
284.683
284.869
285.053
285.238
285.422
285.604
285.786
285.967
286.146
286.323
286.499
286.672
286.844
287.014
287.181
287.346
287.51
287.67
287.829
287.986
288.14
288.292
288.441
288.589
288.734
288.876
289.017
289.155
289.29
289.424
289.555
289.684
289.811
289.936
290.058
290.179
290.297
290.414
290.528
290.64
290.751
290.859
290.965
291.07
291.173
291.274
291.373
291.47
291.566
291.66
291.753
291.843
291.933
292.02
292.107
292.192
292.275
292.358
292.44
292.521
292.601
292.681
292.761
292.842
292.923
293.005
293.087
293.171
293.256
293.343
293.43
293.519
293.61
293.7
293.792
293.884
293.977
294.069
294.161
294.252
294.343
294.433
294.521
294.609
294.695
294.779
294.863
294.944
295.024
295.103
295.179
295.255
295.328
295.4
295.47
295.539
295.606
295.672
295.735
295.798
295.859
295.918
295.976
296.032
296.087
296.141
296.194
296.245
296.296
296.345
296.394
296.442
296.485
276
276
275.999
276
276
276
276
276.001
276.001
276.002
276.003
276.005
276.008
276.011
276.016
276.022
276.03
276.04
276.053
276.068
276.087
276.11
276.137
276.169
276.207
276.25
276.299
276.354
276.416
276.485
276.561
276.644
276.734
276.83
276.932
277.041
277.155
277.274
277.398
277.526
277.657
277.792
277.929
278.068
278.209
278.351
278.494
278.639
278.784
278.93
279.076
279.222
279.368
279.515
279.661
279.807
279.953
280.099
280.245
280.391
280.537
280.683
280.829
280.975
281.122
281.269
281.416
281.565
281.715
281.866
282.019
282.173
282.33
282.488
282.648
282.81
282.974
283.14
283.307
283.477
283.648
283.821
283.994
284.169
284.344
284.521
284.697
284.874
285.051
285.227
285.404
285.58
285.755
285.93
286.104
286.277
286.448
286.618
286.786
286.952
287.117
287.279
287.44
287.599
287.756
287.911
288.063
288.214
288.362
288.509
288.653
288.795
288.935
289.073
289.208
289.342
289.473
289.602
289.729
289.854
289.977
290.098
290.216
290.333
290.448
290.561
290.672
290.781
290.888
290.993
291.097
291.198
291.298
291.396
291.493
291.588
291.681
291.773
291.863
291.951
292.038
292.124
292.208
292.291
292.373
292.454
292.534
292.614
292.694
292.773
292.853
292.933
293.014
293.096
293.18
293.264
293.35
293.437
293.525
293.614
293.704
293.795
293.886
293.978
294.069
294.161
294.251
294.341
294.43
294.518
294.605
294.691
294.775
294.858
294.939
295.019
295.097
295.173
295.248
295.322
295.393
295.463
295.532
295.599
295.664
295.728
295.79
295.851
295.91
295.968
296.024
296.079
296.133
296.185
296.237
296.287
296.337
296.386
296.434
296.477
276
276
276
276
276
276
276.001
276.002
276.003
276.005
276.008
276.012
276.018
276.025
276.035
276.047
276.063
276.082
276.105
276.134
276.167
276.206
276.252
276.304
276.363
276.429
276.502
276.583
276.671
276.766
276.868
276.976
277.09
277.209
277.333
277.461
277.593
277.729
277.867
278.007
278.149
278.292
278.436
278.58
278.725
278.87
279.015
279.16
279.305
279.449
279.593
279.736
279.878
280.02
280.162
280.302
280.443
280.582
280.722
280.86
280.999
281.137
281.275
281.413
281.551
281.689
281.828
281.967
282.107
282.249
282.392
282.536
282.682
282.829
282.978
283.13
283.283
283.438
283.595
283.754
283.915
284.077
284.24
284.405
284.571
284.737
284.905
285.072
285.241
285.409
285.577
285.746
285.914
286.081
286.248
286.414
286.579
286.743
286.905
287.066
287.225
287.383
287.539
287.693
287.846
287.997
288.145
288.292
288.437
288.58
288.721
288.86
288.997
289.132
289.265
289.396
289.525
289.652
289.777
289.9
290.02
290.139
290.256
290.371
290.485
290.596
290.705
290.813
290.919
291.023
291.125
291.226
291.324
291.421
291.517
291.611
291.703
291.794
291.883
291.971
292.057
292.142
292.225
292.308
292.389
292.469
292.549
292.628
292.707
292.786
292.865
292.945
293.025
293.106
293.189
293.272
293.357
293.443
293.53
293.619
293.708
293.798
293.888
293.979
294.07
294.16
294.25
294.34
294.428
294.516
294.602
294.687
294.771
294.853
294.934
295.013
295.091
295.167
295.241
295.315
295.386
295.456
295.524
295.591
295.656
295.72
295.782
295.842
295.901
295.959
296.015
296.07
296.124
296.177
296.228
296.279
296.328
296.377
296.425
296.468
276
276
276
276
276.001
276.002
276.003
276.005
276.008
276.013
276.02
276.029
276.041
276.056
276.076
276.1
276.13
276.166
276.208
276.257
276.314
276.378
276.45
276.531
276.619
276.715
276.818
276.929
277.045
277.167
277.294
277.425
277.56
277.698
277.839
277.982
278.127
278.273
278.419
278.566
278.713
278.859
279.005
279.15
279.295
279.438
279.581
279.723
279.863
280.003
280.141
280.278
280.415
280.55
280.684
280.818
280.95
281.082
281.213
281.344
281.474
281.603
281.732
281.861
281.99
282.119
282.248
282.378
282.508
282.639
282.772
282.906
283.041
283.178
283.317
283.457
283.6
283.744
283.89
284.039
284.189
284.34
284.494
284.648
284.804
284.962
285.12
285.278
285.438
285.598
285.758
285.918
286.079
286.239
286.398
286.558
286.716
286.874
287.03
287.185
287.339
287.492
287.643
287.793
287.941
288.087
288.232
288.375
288.516
288.656
288.793
288.929
289.063
289.195
289.325
289.454
289.58
289.704
289.827
289.948
290.067
290.184
290.299
290.412
290.523
290.633
290.741
290.847
290.951
291.054
291.155
291.254
291.352
291.448
291.542
291.635
291.727
291.816
291.905
291.991
292.077
292.161
292.244
292.325
292.406
292.486
292.565
292.643
292.721
292.8
292.878
292.957
293.036
293.117
293.198
293.281
293.365
293.45
293.536
293.624
293.712
293.801
293.891
293.981
294.071
294.16
294.249
294.338
294.426
294.513
294.598
294.683
294.766
294.848
294.928
295.007
295.084
295.16
295.234
295.307
295.378
295.448
295.516
295.583
295.648
295.711
295.773
295.833
295.892
295.95
296.006
296.061
296.115
296.168
296.219
296.269
296.319
296.368
296.416
296.459
276
276
276
276.001
276.002
276.005
276.008
276.014
276.022
276.033
276.049
276.069
276.094
276.126
276.165
276.212
276.266
276.33
276.402
276.484
276.574
276.673
276.781
276.896
277.018
277.146
277.28
277.418
277.56
277.704
277.851
278
278.15
278.3
278.451
278.602
278.752
278.901
279.05
279.197
279.343
279.487
279.63
279.771
279.911
280.049
280.185
280.32
280.454
280.586
280.716
280.845
280.973
281.1
281.225
281.35
281.473
281.596
281.718
281.839
281.959
282.079
282.198
282.318
282.437
282.556
282.675
282.795
282.915
283.036
283.158
283.282
283.407
283.533
283.661
283.791
283.923
284.056
284.192
284.33
284.469
284.611
284.754
284.899
285.045
285.192
285.341
285.491
285.641
285.793
285.945
286.097
286.249
286.402
286.555
286.707
286.859
287.01
287.16
287.31
287.458
287.606
287.752
287.896
288.04
288.182
288.322
288.461
288.599
288.735
288.869
289.001
289.132
289.261
289.389
289.514
289.638
289.76
289.88
289.998
290.115
290.23
290.343
290.455
290.564
290.672
290.778
290.883
290.986
291.087
291.187
291.285
291.381
291.476
291.569
291.661
291.751
291.84
291.927
292.013
292.098
292.181
292.263
292.344
292.424
292.503
292.581
292.659
292.736
292.814
292.892
292.97
293.048
293.128
293.208
293.29
293.373
293.457
293.543
293.629
293.717
293.805
293.893
293.982
294.071
294.16
294.248
294.336
294.423
294.509
294.594
294.678
294.761
294.842
294.922
295
295.077
295.153
295.227
295.299
295.37
295.44
295.507
295.574
295.639
295.702
295.764
295.824
295.883
295.941
295.997
296.052
296.105
296.158
296.209
296.26
296.309
296.358
296.406
296.449
276
276
276.002
276.004
276.008
276.014
276.024
276.039
276.059
276.086
276.121
276.164
276.217
276.28
276.354
276.438
276.533
276.639
276.754
276.878
277.01
277.149
277.294
277.444
277.597
277.753
277.91
278.068
278.227
278.385
278.543
278.7
278.855
279.009
279.161
279.311
279.459
279.605
279.749
279.891
280.03
280.167
280.303
280.436
280.567
280.696
280.823
280.948
281.072
281.193
281.314
281.433
281.55
281.667
281.782
281.896
282.009
282.121
282.233
282.343
282.453
282.563
282.672
282.781
282.89
282.999
283.108
283.217
283.327
283.438
283.55
283.663
283.777
283.893
284.01
284.129
284.251
284.374
284.499
284.626
284.755
284.887
285.02
285.155
285.291
285.429
285.568
285.709
285.851
285.994
286.137
286.281
286.426
286.571
286.716
286.861
287.006
287.151
287.295
287.439
287.582
287.724
287.865
288.004
288.143
288.281
288.417
288.552
288.685
288.817
288.948
289.077
289.204
289.33
289.455
289.577
289.698
289.818
289.935
290.052
290.166
290.279
290.39
290.499
290.607
290.713
290.818
290.921
291.022
291.122
291.22
291.317
291.412
291.506
291.598
291.688
291.777
291.865
291.952
292.037
292.12
292.203
292.284
292.364
292.443
292.521
292.599
292.676
292.752
292.829
292.906
292.983
293.061
293.14
293.219
293.3
293.382
293.465
293.55
293.635
293.721
293.809
293.896
293.984
294.072