/*--------------------------------*- C++ -*----------------------------------*\
| =========                 |                                                 |
| \\      /  F ield         | OpenFOAM: The Open Source CFD Toolbox           |
|  \\    /   O peration     | Version:  1.7.0                                 |
|   \\  /    A nd           | Web:      www.OpenFOAM.com                      |
|    \\/     M anipulation  |                                                 |
\*---------------------------------------------------------------------------*/
FoamFile
{
    version     2.0;
    format      ascii;
    class       volVectorField;
    location    "10000";
    object      U;
}
// * * * * * * * * * * * * * * * * * * * * * * * * * * * * * * * * * * * * * //

dimensions      [0 1 -1 0 0 0 0];

internalField   nonuniform List<vector> 
14800
(
(29.5288 0.000730138 -5.38012e-15)
(29.5256 0.00108816 -8.67185e-14)
(29.512 0.00155743 -1.64145e-13)
(29.4932 0.00185908 -1.96989e-12)
(29.4722 0.00203409 -1.03459e-12)
(29.4495 0.00214772 -1.8145e-13)
(29.4255 0.00221765 1.03068e-11)
(29.4007 0.00225456 2.46661e-12)
(29.3753 0.0022703 -1.51042e-12)
(29.3495 0.00227352 -1.3321e-12)
(29.3234 0.00226955 -8.37896e-13)
(29.297 0.00226176 -4.04725e-13)
(29.2705 0.00225231 -1.6413e-13)
(29.2437 0.00224248 -1.16607e-12)
(29.2168 0.00223292 -1.27777e-12)
(29.1897 0.00222398 -1.10319e-12)
(29.1623 0.00221581 -3.02299e-12)
(29.1348 0.00220847 -1.29609e-11)
(29.107 0.00220195 -1.41851e-12)
(29.0789 0.00219623 -9.29123e-13)
(29.0506 0.00219138 -6.77601e-13)
(29.022 0.00218752 -2.73133e-12)
(28.9931 0.00218487 -2.09995e-12)
(28.964 0.00218374 -1.59415e-12)
(28.9344 0.00218444 -1.24463e-12)
(28.9045 0.00218717 -1.07562e-12)
(28.8742 0.00219196 -2.87246e-13)
(28.8435 0.00219868 -5.51606e-15)
(28.8123 0.00220709 -3.98007e-15)
(28.7806 0.00221693 -7.87236e-12)
(28.7484 0.00222809 7.75268e-13)
(28.7156 0.00224068 8.00697e-13)
(28.6823 0.0022551 2.65181e-13)
(28.6483 0.0022721 -1.75962e-13)
(28.6137 0.00229274 -3.92425e-13)
(28.5784 0.00231838 -4.10682e-13)
(28.5421 0.00235056 -2.93409e-13)
(28.505 0.00239101 -1.51105e-13)
(28.4667 0.00244147 -1.02776e-13)
(28.4271 0.00250373 -1.83078e-13)
(28.3859 0.00257968 3.58101e-13)
(28.343 0.00267131 4.18062e-13)
(28.2979 0.00278093 3.19468e-13)
(28.2505 0.00291115 2.32349e-13)
(28.2001 0.003065 1.86216e-13)
(28.1464 0.00324591 2.64239e-13)
(28.0889 0.00345779 1.59468e-12)
(28.0268 0.00370499 5.84039e-12)
(27.9595 0.00399228 6.85765e-13)
(27.8861 0.00432475 6.30417e-12)
(27.8057 0.00470743 1.00113e-12)
(27.7172 0.00514457 4.6344e-13)
(27.6195 0.00563934 -1.4148e-12)
(27.5113 0.00619324 -5.54851e-13)
(27.3913 0.00680516 -3.44413e-13)
(27.2584 0.00747099 -2.16489e-13)
(27.1111 0.00818343 5.13911e-12)
(26.9486 0.00893198 9.14911e-13)
(26.77 0.00970303 6.2666e-13)
(26.5745 0.0104802 8.17216e-13)
(26.362 0.0112449 8.7519e-13)
(26.1325 0.011977 8.44079e-13)
(25.8864 0.0126572 7.78054e-13)
(25.6247 0.0132685 7.00456e-13)
(25.3486 0.0137983 6.00516e-13)
(25.0594 0.01424 5.51583e-13)
(24.7588 0.0145923 -2.17066e-12)
(24.4483 0.0148584 -4.41544e-13)
(24.1295 0.0150437 -2.10855e-12)
(23.8039 0.0151542 -2.83343e-13)
(23.4729 0.0151956 2.16007e-13)
(23.1378 0.0151731 4.26018e-13)
(22.8 0.0150918 4.53615e-13)
(22.4607 0.0149573 2.41414e-12)
(22.1209 0.0147758 -9.92027e-13)
(21.7817 0.0145538 1.14677e-13)
(21.4441 0.0142981 3.13931e-13)
(21.1088 0.0140152 3.92446e-13)
(20.7765 0.0137105 1.14077e-13)
(20.4477 0.0133893 5.87529e-13)
(20.123 0.0130556 6.00399e-13)
(19.8028 0.0127135 1.1307e-12)
(19.4873 0.0123666 -4.99896e-12)
(19.1768 0.0120182 2.02162e-13)
(18.8714 0.0116715 1.43463e-12)
(18.5714 0.011329 2.12741e-13)
(18.2765 0.0109927 4.40696e-13)
(17.987 0.0106635 2.5913e-13)
(17.7027 0.0103416 9.5425e-14)
(17.4236 0.0100265 1.4121e-13)
(17.1497 0.00971703 2.06457e-12)
(16.8811 0.00941234 1.01474e-13)
(16.6178 0.00911161 -1.94193e-13)
(16.3598 0.00881454 -6.72449e-13)
(16.1073 0.00852164 -4.58165e-13)
(15.8602 0.00823407 -2.75186e-12)
(15.6186 0.00795285 1.84561e-12)
(15.3824 0.00767904 -3.3907e-13)
(15.1515 0.00741391 -6.71379e-13)
(14.9259 0.00715828 -4.66185e-13)
(14.7054 0.00691249 -5.88362e-14)
(14.4898 0.00667645 9.38162e-13)
(14.279 0.00644972 7.06227e-13)
(14.0728 0.00623166 -2.86766e-12)
(13.8712 0.00602158 -1.02273e-12)
(13.6739 0.00581883 -5.60951e-13)
(13.481 0.00562289 -1.17709e-12)
(13.2923 0.00543337 -5.8952e-13)
(13.1077 0.00525003 -1.29928e-12)
(12.9272 0.0050727 -1.38932e-12)
(12.7507 0.00490127 1.51532e-12)
(12.578 0.00473569 1.71242e-15)
(12.4092 0.00457587 -2.44707e-13)
(12.244 0.00442174 -2.08099e-13)
(12.0825 0.00427321 -3.95629e-14)
(11.9245 0.00413013 5.72739e-13)
(11.7699 0.00399235 -2.93086e-14)
(11.6187 0.00385966 4.0609e-12)
(11.4707 0.00373186 8.7502e-14)
(11.3259 0.00360871 -2.29754e-14)
(11.1841 0.00348996 -2.01502e-13)
(11.0454 0.00337542 8.40433e-14)
(10.9095 0.00326486 -1.03358e-12)
(10.7766 0.00315813 -1.40706e-13)
(10.6464 0.00305508 1.16371e-12)
(10.5189 0.00295558 -4.30824e-13)
(10.3941 0.00285952 -4.03409e-13)
(10.2719 0.00276678 -1.62906e-12)
(10.1523 0.00267727 -4.82266e-13)
(10.0351 0.00259087 -4.69701e-14)
(9.92031 0.00250749 5.87337e-14)
(9.80789 0.00242702 5.34054e-14)
(9.69777 0.00234936 -1.43947e-12)
(9.58989 0.0022744 -1.21573e-13)
(9.48419 0.00220204 3.29695e-16)
(9.38063 0.0021322 2.1725e-13)
(9.27914 0.00206477 -1.90655e-12)
(9.17968 0.00199966 -2.3185e-13)
(9.0822 0.0019368 -7.08342e-13)
(8.98666 0.00187609 -1.00208e-12)
(8.893 0.00181747 -9.9386e-13)
(8.80118 0.00176085 -6.1574e-13)
(8.71117 0.00170618 -3.30414e-13)
(8.62291 0.00165339 8.49182e-14)
(8.53637 0.00160243 -3.6837e-13)
(8.45151 0.00155324 -1.36336e-13)
(8.36828 0.00150579 3.50801e-12)
(8.28666 0.00146001 7.26063e-14)
(8.20662 0.00141585 1.88263e-13)
(8.1281 0.00137327 -3.61715e-13)
(8.05109 0.00133219 -2.40946e-13)
(7.97554 0.00129254 -6.15343e-13)
(7.90142 0.00125426 7.41997e-15)
(7.82871 0.00121728 -1.38044e-13)
(7.75738 0.00118153 -1.5476e-13)
(7.68738 0.00114692 -1.45303e-13)
(7.61871 0.00111339 -3.25362e-12)
(7.55132 0.00108087 -2.67535e-13)
(7.48519 0.00104931 -1.05409e-13)
(7.42029 0.00101864 1.57929e-12)
(7.3566 0.000988823 2.03249e-12)
(7.2941 0.000959831 5.76548e-13)
(7.23276 0.00093163 1.27819e-12)
(7.17255 0.000904197 3.23877e-12)
(7.11345 0.000877513 2.23368e-13)
(7.05544 0.000851565 6.35863e-14)
(6.9985 0.000826337 2.1239e-13)
(6.9426 0.00080182 -2.41736e-12)
(6.88772 0.000778 6.14935e-13)
(6.83385 0.000754867 -4.49231e-13)
(6.78096 0.000732407 -2.26325e-13)
(6.72903 0.000710609 9.80912e-13)
(6.67804 0.000689458 -5.61943e-13)
(6.62798 0.000668937 1.54695e-12)
(6.57883 0.000649029 7.34159e-13)
(6.53056 0.000629715 7.8402e-14)
(6.48316 0.000610978 1.52545e-13)
(6.43662 0.000592806 -2.47609e-12)
(6.39091 0.000575177 1.5364e-13)
(6.34603 0.000558071 -9.40466e-14)
(6.30196 0.000541469 -2.73495e-12)
(6.25868 0.000525356 -1.30874e-12)
(6.21618 0.00050972 -1.52026e-12)
(6.17444 0.000494545 8.14586e-13)
(6.13346 0.000479827 -5.0074e-14)
(6.09321 0.000465542 2.50903e-14)
(6.05369 0.000451701 1.25726e-14)
(6.01488 0.000438247 -8.37377e-13)
(5.97677 0.00042525 4.62744e-12)
(5.93934 0.000412511 -9.5695e-13)
(5.90261 0.000400341 -2.78106e-14)
(5.86649 0.000387972 2.50342e-14)
(5.83117 0.000376713 5.39889e-14)
(5.79629 0.000363531 -2.11479e-12)
(5.76264 0.000353832 3.45838e-13)
(5.72877 0.000335595 -2.19752e-12)
(5.69793 0.000330734 5.03008e-13)
(5.66412 0.000291969 9.20883e-14)
(5.64054 0.000303976 -2.01635e-12)
(5.60307 0.000186152 -5.45114e-14)
(29.507 0.0017092 -1.77556e-14)
(29.504 0.00286126 -3.18543e-13)
(29.4906 0.00402586 -5.02271e-13)
(29.4718 0.0048081 -7.07588e-12)
(29.4507 0.00528661 -2.5197e-12)
(29.4281 0.0055942 -3.6743e-13)
(29.4041 0.00578128 2.86649e-12)
(29.3792 0.00588111 1.89467e-12)
(29.3538 0.00592508 -4.2057e-12)
(29.328 0.00593559 -3.66711e-12)
(29.3019 0.00592671 -2.07892e-12)
(29.2755 0.00590753 -8.83866e-13)
(29.249 0.0058838 -2.88382e-13)
(29.2223 0.00585892 -6.5549e-12)
(29.1953 0.00583469 -3.69165e-12)
(29.1682 0.00581202 -2.98021e-12)
(29.1408 0.00579133 -9.7859e-12)
(29.1133 0.0057728 -5.58775e-12)
(29.0855 0.00575641 -3.52207e-12)
(29.0574 0.00574214 -2.32787e-12)
(29.0291 0.00573011 -1.72489e-12)
(29.0005 0.00572068 -8.89691e-12)
(28.9716 0.00571443 -1.04022e-11)
(28.9424 0.00571219 -4.03829e-12)
(28.9128 0.00571477 -3.20461e-12)
(28.8829 0.00572271 -2.90225e-12)
(28.8526 0.00573614 -3.83413e-13)
(28.8218 0.00575474 1.21849e-13)
(28.7906 0.00577789 1.02188e-13)
(28.7588 0.00580497 -6.28017e-13)
(28.7266 0.00583566 6.60743e-12)
(28.6937 0.00587029 2.331e-12)
(28.6603 0.00590994 4.82461e-13)
(28.6262 0.00595657 -5.2386e-12)
(28.5914 0.00601301 -1.10629e-12)
(28.5558 0.00608281 -1.1141e-12)
(28.5193 0.00617011 -7.53794e-13)
(28.4819 0.00627944 -3.59236e-13)
(28.4432 0.00641546 -2.40919e-13)
(28.4032 0.00658294 -5.48361e-13)
(28.3615 0.00678682 1.2448e-12)
(28.318 0.00703249 1.21231e-12)
(28.2722 0.00732594 8.74907e-13)
(28.2239 0.00767414 6.2115e-13)
(28.1725 0.008085 4.95013e-13)
(28.1177 0.00856754 8.38602e-13)
(28.0588 0.00913194 -1.60237e-12)
(27.9952 0.00978953 1.95068e-12)
(27.9262 0.0105527 4.04426e-12)
(27.851 0.0114345 1.68034e-12)
(27.7685 0.0124478 1.09072e-12)
(27.6777 0.0136033 4.73912e-12)
(27.5775 0.0149088 -4.70113e-12)
(27.4668 0.0163675 -1.36693e-12)
(27.3442 0.017976 -9.34053e-13)
(27.2086 0.019723 -6.23146e-13)
(27.0589 0.0215891 2.15096e-12)
(26.8942 0.0235467 1.57347e-12)
(26.7136 0.0255605 1.71815e-12)
(26.5166 0.0275885 2.37306e-12)
(26.303 0.0295827 2.50866e-12)
(26.0729 0.0314919 2.39898e-12)
(25.8268 0.0332661 2.20179e-12)
(25.5656 0.0348616 1.97846e-12)
(25.2904 0.0362463 1.691e-12)
(25.0026 0.0374028 1.59102e-12)
(24.7036 0.0383275 -4.46728e-12)
(24.395 0.0390282 -1.01307e-12)
(24.0783 0.0395185 -4.30857e-12)
(23.7549 0.0398137 -6.0801e-13)
(23.4262 0.0399285 6.63242e-13)
(23.0935 0.039876 1.22625e-12)
(22.758 0.0396695 1.2775e-12)
(22.4209 0.0393233 1.53941e-12)
(22.0833 0.0388532 -3.11244e-12)
(21.7463 0.0382765 4.09477e-13)
(21.4107 0.0376109 9.03562e-13)
(21.0774 0.036873 -1.37377e-12)
(20.747 0.0360776 -2.07911e-12)
(20.42 0.0352378 1.73248e-12)
(20.0969 0.0343649 1.69933e-12)
(19.7782 0.0334693 3.27722e-12)
(19.4642 0.0325603 -3.09974e-12)
(19.1551 0.0316471 6.3366e-13)
(18.851 0.0307377 4.15067e-12)
(18.5522 0.0298391 5.44993e-13)
(18.2585 0.0289563 3.20859e-12)
(17.97 0.028092 7.10272e-13)
(17.6867 0.0272466 2.59622e-13)
(17.4085 0.0264186 2.20826e-12)
(17.1355 0.0256054 -6.81745e-13)
(16.8677 0.0248045 2.15603e-13)
(16.6052 0.0240138 -2.26685e-12)
(16.348 0.0232326 -1.90655e-12)
(16.0961 0.0224622 -1.27814e-12)
(15.8497 0.0217056 -2.17093e-12)
(15.6086 0.0209656 -2.41738e-13)
(15.373 0.020245 -1.03094e-12)
(15.1427 0.0195471 -1.92905e-12)
(14.9175 0.0188741 -1.32309e-12)
(14.6974 0.0182269 -1.62048e-12)
(14.4823 0.0176054 2.70781e-12)
(14.2719 0.0170082 2.04381e-12)
(14.0661 0.0164339 -3.2686e-12)
(13.8648 0.0158804 -2.86842e-12)
(13.6679 0.0153463 -1.5772e-12)
(13.4753 0.0148301 -4.19397e-12)
(13.2868 0.0143308 -1.60912e-12)
(13.1026 0.0138476 1.00726e-12)
(12.9223 0.0133803 5.83164e-13)
(12.746 0.0129286 -1.14174e-13)
(12.5736 0.0124921 -2.30444e-14)
(12.405 0.0120709 -5.92061e-13)
(12.24 0.0116646 -5.82864e-13)
(12.0787 0.0112731 -1.09841e-13)
(11.9209 0.0108959 1.6608e-12)
(11.7665 0.0105327 -9.65082e-14)
(11.6154 0.0101828 1.51439e-12)
(11.4676 0.00984588 2.16097e-13)
(11.3229 0.00952115 -6.67226e-14)
(11.1813 0.00920805 -5.74098e-13)
(11.0426 0.00890599 2.37462e-13)
(10.9069 0.00861446 -4.04588e-12)
(10.7741 0.008333 -3.89145e-13)
(10.644 0.00806123 4.40029e-12)
(10.5167 0.00779882 -1.24654e-12)
(10.392 0.00754545 -1.14944e-12)
(10.2699 0.00730086 -1.06158e-12)
(10.1503 0.00706476 -1.36937e-12)
(10.0332 0.00683688 -1.29285e-13)
(9.9185 0.00661695 1.68325e-13)
(9.80616 0.00640468 1.54337e-13)
(9.69611 0.00619981 -5.13032e-12)
(9.5883 0.00600208 -3.27571e-13)
(9.48267 0.0058112 2.13621e-15)
(9.37917 0.00562695 6.20856e-13)
(9.27774 0.00544906 -5.40794e-12)
(9.17834 0.0052773 -6.37546e-13)
(9.08092 0.00511145 -3.82998e-12)
(8.98543 0.00495129 -2.83319e-12)
(8.89182 0.00479661 -2.82204e-12)
(8.80005 0.00464724 -1.74596e-12)
(8.71008 0.00450299 -9.37035e-13)
(8.62187 0.0043637 2.42829e-13)
(8.53537 0.00422924 2.0114e-12)
(8.45054 0.00409947 5.61805e-12)
(8.36736 0.00397425 4.22381e-12)
(8.28578 0.00385345 1.77101e-13)
(8.20576 0.00373694 5.41238e-13)
(8.12728 0.00362457 1.87772e-12)
(8.0503 0.00351617 -7.47825e-13)
(7.97478 0.00341154 -1.76785e-12)
(7.90069 0.00331053 4.31216e-14)
(7.82801 0.00321295 -3.92908e-13)
(7.7567 0.0031186 -4.4044e-13)
(7.68673 0.00302728 -4.16581e-13)
(7.61808 0.00293879 -2.25399e-12)
(7.55071 0.00285297 -7.42727e-13)
(7.4846 0.00276966 -3.00088e-13)
(7.41973 0.00268873 4.60563e-12)
(7.35606 0.00261005 5.81204e-12)
(7.29358 0.00253354 1.62648e-12)
(7.23225 0.00245911 3.80345e-12)
(7.17206 0.00238671 1.66643e-12)
(7.11298 0.00231629 6.25893e-13)
(7.05499 0.00224781 2.68436e-12)
(6.99806 0.00218123 5.91577e-13)
(6.94218 0.00211652 1.58654e-13)
(6.88732 0.00205365 3.09616e-12)
(6.83346 0.0019926 -3.80239e-12)
(6.78058 0.00193332 -6.31933e-13)
(6.72866 0.00187579 2.80056e-12)
(6.67769 0.00181996 -1.70451e-12)
(6.62764 0.0017658 4.40768e-12)
(6.5785 0.00171326 2.08451e-12)
(6.53024 0.00166228 2.23035e-13)
(6.48285 0.00161283 4.35874e-13)
(6.43632 0.00156486 -8.29391e-12)
(6.39062 0.00151833 4.45384e-13)
(6.34575 0.00147318 -2.67287e-13)
(6.30169 0.00142936 -7.6822e-12)
(6.25842 0.00138683 -4.90166e-12)
(6.21592 0.00134556 -5.57724e-12)
(6.1742 0.0013055 2.43658e-12)
(6.13322 0.00126665 -1.44897e-13)
(6.09298 0.00122895 7.16714e-14)
(6.05347 0.00119241 3.60205e-14)
(6.01467 0.0011569 -2.39567e-12)
(5.97657 0.00112259 5.5558e-12)
(5.93914 0.00108897 -2.74827e-12)
(5.90242 0.00105684 -7.58345e-14)
(5.86631 0.0010242 7.13867e-14)
(5.83099 0.000994457 1.54437e-13)
(5.79612 0.000959695 -6.03664e-12)
(5.76247 0.000934027 9.76215e-13)
(5.7286 0.000886011 -7.33201e-12)
(5.69778 0.000872931 1.44152e-12)
(5.66397 0.000771084 2.61356e-13)
(5.6404 0.000801857 -3.76114e-12)
(5.60293 0.000492379 -1.51523e-13)
(29.46 0.00258619 -4.46363e-14)
(29.4568 0.00467291 -1.09734e-12)
(29.4433 0.00644044 -8.92554e-13)
(29.4244 0.00764479 3.41361e-12)
(29.4033 0.00841324 1.46548e-12)
(29.3806 0.0089063 1.62946e-12)
(29.3566 0.00920245 1.51027e-12)
(29.3318 0.00936038 9.84665e-13)
(29.3063 0.00943049 -1.17299e-12)
(29.2805 0.00944757 -1.5257e-12)
(29.2544 0.00943385 -1.26879e-12)
(29.228 0.00940378 2.00186e-13)
(29.2015 0.00936652 5.70815e-13)
(29.1748 0.00932743 -3.80492e-13)
(29.1478 0.00928938 -4.09067e-12)
(29.1207 0.00925378 -3.59896e-12)
(29.0933 0.00922136 -4.12839e-12)
(29.0657 0.00919239 -3.53091e-12)
(29.0379 0.00916685 -2.8031e-12)
(29.0098 0.00914474 -2.15283e-12)
(28.9815 0.00912629 -1.71206e-12)
(28.9529 0.00911209 -3.40227e-12)
(28.9239 0.00910314 -3.73782e-12)
(28.8947 0.0091008 -3.71536e-12)
(28.8651 0.00910645 -3.46196e-12)
(28.8351 0.00912102 -4.15067e-12)
(28.8048 0.00914479 -7.48871e-13)
(28.7739 0.00917735 7.40358e-13)
(28.7425 0.0092178 1.40121e-13)
(28.7107 0.00926523 4.936e-12)
(28.6782 0.00931929 2.35847e-12)
(28.6451 0.00938062 -4.87001e-13)
(28.6114 0.00945111 -1.30499e-12)
(28.577 0.00953408 -1.638e-12)
(28.5418 0.00963424 -1.70292e-12)
(28.5058 0.0097575 -1.49796e-12)
(28.4688 0.0099107 -7.68516e-13)
(28.4306 0.0101013 -1.81576e-13)
(28.3911 0.010337 -9.93037e-14)
(28.35 0.0106257 -1.2219e-12)
(28.3072 0.0109755 3.75301e-12)
(28.2622 0.0113953 1.99367e-12)
(28.2148 0.0118946 1.18774e-12)
(28.1645 0.0124848 7.74234e-13)
(28.1108 0.0131785 5.98139e-13)
(28.0534 0.0139897 1.6662e-12)
(27.9915 0.0149344 5.19487e-13)
(27.9245 0.0160299 1.7704e-12)
(27.8517 0.0172948 -1.76261e-12)
(27.7721 0.018748 -7.68424e-13)
(27.685 0.020408 9.39788e-13)
(27.5891 0.0222888 1.24366e-12)
(27.4836 0.0243991 -5.61269e-13)
(27.3673 0.0267403 -3.18571e-13)
(27.2391 0.0293029 -1.32656e-12)
(27.098 0.032066 -8.802e-13)
(26.9431 0.0349967 1.34221e-12)
(26.7737 0.0380514 1.97634e-12)
(26.5891 0.0411759 2.90985e-12)
(26.3891 0.0443072 4.28903e-12)
(26.1735 0.0473744 4.2622e-12)
(25.9424 0.0503028 3.95286e-12)
(25.6965 0.0530195 3.5758e-12)
(25.4365 0.0554611 3.19371e-12)
(25.1635 0.057581 2.69642e-12)
(24.8787 0.0593538 2.79466e-12)
(24.5834 0.0607746 -2.16687e-12)
(24.279 0.0618541 3.8198e-15)
(23.9668 0.0626121 -1.7629e-12)
(23.6482 0.0630707 3.41855e-13)
(23.3245 0.0632508 1.37785e-12)
(22.9967 0.0631718 2.12053e-12)
(22.6662 0.0628533 2.09959e-12)
(22.3341 0.0623165 1.01095e-12)
(22.0013 0.0615858 1.36275e-12)
(21.669 0.0606875 1.27255e-12)
(21.3379 0.0596487 1.55248e-12)
(21.0088 0.058495 2.65516e-12)
(20.6824 0.0572495 1.27909e-12)
(20.3593 0.0559326 3.19634e-12)
(20.0398 0.0545621 2.74775e-12)
(19.7246 0.0531541 3.35601e-14)
(19.4137 0.0517237 -2.24737e-13)
(19.1076 0.0502852 1.4623e-12)
(18.8064 0.0488517 1.99681e-12)
(18.5101 0.047434 5.08228e-13)
(18.2189 0.0460401 1.55747e-12)
(17.9327 0.0446745 1.04559e-12)
(17.6516 0.0433379 3.64217e-13)
(17.3755 0.042028 8.30521e-14)
(17.1044 0.040741 -3.08527e-12)
(16.8384 0.0394728 4.18153e-13)
(16.5776 0.0382203 -5.01107e-13)
(16.3219 0.0369822 -3.14847e-12)
(16.0716 0.0357608 -2.01115e-12)
(15.8265 0.0345609 -1.96983e-12)
(15.5868 0.0333869 -1.91314e-12)
(15.3524 0.0322433 -1.77173e-12)
(15.1232 0.0311354 -3.31836e-12)
(14.8991 0.0300666 -2.17205e-12)
(14.68 0.0290386 3.04942e-13)
(14.4657 0.0280509 1.05017e-12)
(14.2562 0.0271019 -3.22589e-14)
(14.0512 0.0261888 -4.41853e-12)
(13.8507 0.0253088 -4.74389e-12)
(13.6545 0.0244594 -2.52075e-12)
(13.4626 0.0236383 -4.94461e-12)
(13.2748 0.0228439 -2.48283e-12)
(13.0912 0.0220752 5.53414e-14)
(12.9115 0.0213316 -9.70827e-13)
(12.7357 0.0206126 -1.57051e-12)
(12.5638 0.0199179 -2.46884e-14)
(12.3957 0.0192473 -7.86084e-13)
(12.2312 0.0186005 -9.22138e-13)
(12.0703 0.017977 -1.67015e-13)
(11.9129 0.0173764 2.95782e-12)
(11.7589 0.0167978 -2.37968e-13)
(11.6081 0.0162406 1.24468e-12)
(11.4606 0.0157038 2.99386e-13)
(11.3163 0.0151865 -1.18154e-13)
(11.175 0.0146877 -9.57761e-13)
(11.0366 0.0142064 3.80795e-13)
(10.9012 0.0137418 -1.98359e-12)
(10.7686 0.0132933 -5.79978e-13)
(10.6388 0.0128601 2.73452e-12)
(10.5117 0.0124419 4.16317e-13)
(10.3872 0.012038 -1.92869e-12)
(10.2653 0.0116482 -6.82621e-13)
(10.1459 0.0112718 -2.35741e-12)
(10.029 0.0109085 -1.84143e-13)
(9.91452 0.0105579 2.87093e-13)
(9.80235 0.0102194 2.71364e-13)
(9.69247 0.00989278 -4.94187e-12)
(9.58481 0.00957747 -4.30771e-13)
(9.47933 0.00927311 1.03533e-14)
(9.37597 0.00897927 1.04853e-12)
(9.27467 0.00869558 -5.5348e-12)
(9.1754 0.00842166 -9.22197e-13)
(9.0781 0.00815715 -2.8083e-12)
(8.98272 0.0079017 -4.60023e-12)
(8.88923 0.00765499 -4.64805e-12)
(8.79756 0.00741672 -2.8604e-12)
(8.70769 0.00718662 -1.53602e-12)
(8.61957 0.00696444 4.23216e-13)
(8.53316 0.00674994 1.59121e-12)
(8.44843 0.00654291 7.35364e-12)
(8.36533 0.00634315 1.20291e-12)
(8.28382 0.00615043 2.09802e-13)
(8.20389 0.00596454 9.45972e-13)
(8.12548 0.00578527 1.46075e-12)
(8.04856 0.00561231 -4.47905e-13)
(7.97311 0.00544537 -3.03836e-12)
(7.89909 0.0052842 2.13903e-13)
(7.82647 0.00512849 -6.55776e-13)
(7.75521 0.00497794 -7.31761e-13)
(7.6853 0.00483222 -7.20149e-13)
(7.6167 0.00469102 -5.2453e-12)
(7.54938 0.00455408 -1.19121e-12)
(7.48333 0.00442113 -4.99414e-13)
(7.4185 0.00429197 4.19353e-12)
(7.35488 0.00416642 9.83138e-12)
(7.29244 0.00404432 2.60812e-12)
(7.23115 0.00392555 2.7124e-12)
(7.171 0.00381001 4.86863e-12)
(7.11195 0.00369762 9.90299e-13)
(7.054 0.00358833 3.12651e-12)
(6.9971 0.00348207 9.61203e-13)
(6.94125 0.0033788 -2.55819e-13)
(6.88643 0.00327847 2.49686e-12)
(6.8326 0.00318102 -1.93273e-12)
(6.77975 0.00308642 -1.02164e-12)
(6.72786 0.00299459 1.48696e-12)
(6.67692 0.00290549 1.75097e-13)
(6.62689 0.00281904 9.57852e-12)
(6.57777 0.00273517 3.43233e-12)
(6.52954 0.00265381 3.69542e-13)
(6.48218 0.00257487 7.34682e-13)
(6.43567 0.00249831 -8.41409e-12)
(6.38999 0.00242404 7.90779e-13)
(6.34514 0.00235196 -4.41806e-13)
(6.3011 0.00228201 -9.65188e-12)
(6.25785 0.00221412 -2.84138e-12)
(6.21537 0.00214824 -4.14721e-12)
(6.17366 0.0020843 -1.3406e-12)
(6.13271 0.00202229 -2.59797e-13)
(6.09248 0.00196209 1.20753e-13)
(6.05299 0.00190377 6.13776e-14)
(6.0142 0.00184708 -4.05518e-12)
(5.97611 0.00179231 6.85122e-12)
(5.9387 0.00173863 -3.86368e-12)
(5.902 0.00168733 -1.04485e-13)
(5.8659 0.00163523 1.19458e-13)
(5.8306 0.00158772 2.61523e-13)
(5.79574 0.00153228 -5.05498e-12)
(5.76211 0.00149118 1.56936e-12)
(5.72825 0.00141475 -7.88554e-12)
(5.69744 0.0013934 2.45793e-12)
(5.66364 0.0012317 4.29399e-13)
(5.64008 0.00127909 -5.45515e-12)
(5.60263 0.000787895 -2.26161e-13)
(29.3876 0.00352963 -8.7222e-14)
(29.3845 0.00658429 -2.71298e-12)
(29.371 0.00899931 -1.46197e-12)
(29.3519 0.010651 2.92267e-12)
(29.3308 0.0117243 2.97605e-12)
(29.308 0.0124112 2.75295e-12)
(29.284 0.0128206 4.4529e-13)
(29.2591 0.0130385 -4.78127e-14)
(29.2336 0.0131352 -4.74811e-13)
(29.2078 0.0131585 -6.18345e-13)
(29.1817 0.0131391 -4.8291e-13)
(29.1553 0.0130971 2.29318e-12)
(29.1288 0.0130453 2.08654e-12)
(29.102 0.0129909 1.15382e-12)
(29.075 0.012938 -5.52629e-13)
(29.0479 0.0128886 -9.6851e-13)
(29.0205 0.0128437 -1.3348e-12)
(28.9929 0.0128036 -1.47793e-12)
(28.965 0.0127685 -1.44194e-12)
(28.9369 0.0127382 -1.29905e-12)
(28.9086 0.0127133 -1.15239e-12)
(28.8799 0.0126947 -4.05837e-12)
(28.8509 0.0126837 -2.23142e-12)
(28.8216 0.0126826 -2.70511e-12)
(28.792 0.0126933 -2.88535e-12)
(28.7619 0.0127173 -6.41063e-12)
(28.7314 0.0127552 -2.51477e-12)
(28.7004 0.0128066 -1.19022e-12)
(28.6689 0.0128705 -1.05858e-12)
(28.6367 0.0129457 3.21387e-12)
(28.604 0.0130322 -2.99547e-12)
(28.5706 0.0131311 -6.01704e-12)
(28.5364 0.0132454 -4.00748e-12)
(28.5014 0.0133802 -2.80257e-12)
(28.4656 0.0135424 -2.11277e-12)
(28.4287 0.0137408 -1.59477e-12)
(28.3907 0.0139855 -5.78241e-14)
(28.3513 0.0142874 5.17106e-13)
(28.3104 0.0146578 -1.69139e-12)
(28.2677 0.0151083 -3.25507e-12)
(28.2228 0.0156505 -2.08391e-14)
(28.1754 0.0162972 8.65668e-13)
(28.1252 0.0170621 7.24943e-13)
(28.0717 0.0179608 5.15379e-13)
(28.0144 0.0190107 4.40766e-13)
(27.9527 0.0202307 3.4629e-12)
(27.8859 0.0216416 1.2881e-12)
(27.8135 0.0232655 1.5391e-12)
(27.7346 0.0251251 1.47326e-12)
(27.6484 0.0272428 -1.48804e-12)
(27.554 0.0296385 2.58171e-12)
(27.4504 0.0323249 1.52277e-12)
(27.3369 0.0353066 6.23541e-13)
(27.2124 0.0385776 4.03867e-13)
(27.0761 0.0421173 -4.15597e-12)
(26.9272 0.0458915 -8.64825e-13)
(26.7652 0.0498527 2.33253e-12)
(26.5894 0.0539418 2.8399e-12)
(26.3997 0.0580891 4.66414e-12)
(26.1958 0.062216 8.34047e-12)
(25.9778 0.0662357 6.08743e-12)
(25.746 0.0700575 5.42867e-12)
(25.5009 0.0735936 4.82145e-12)
(25.2431 0.0767678 4.2739e-12)
(24.9736 0.0795245 3.51523e-12)
(24.6934 0.081833 4.24498e-12)
(24.4037 0.0836875 -6.96686e-13)
(24.1055 0.0851006 1.61628e-12)
(23.8002 0.0860955 7.65724e-13)
(23.4887 0.0866985 1.63792e-12)
(23.1723 0.0869343 2.29745e-12)
(22.852 0.0868265 3.12448e-12)
(22.5289 0.0863989 2.90628e-12)
(22.2041 0.0856788 1.18457e-12)
(21.8785 0.0846974 4.12467e-12)
(21.553 0.0834889 2.00608e-12)
(21.2285 0.0820888 2.17292e-12)
(20.9058 0.080531 4.58538e-12)
(20.5854 0.0788462 2.30012e-12)
(20.268 0.0770615 3.85493e-12)
(19.9539 0.0752011 3.65698e-12)
(19.6437 0.0732869 4.984e-13)
(19.3377 0.0713395 1.90042e-12)
(19.0361 0.0693787 2.48019e-12)
(18.739 0.0674223 7.51752e-13)
(18.4467 0.0654855 3.45743e-13)
(18.1592 0.0635794 1.82638e-12)
(17.8765 0.0617101 1.23264e-12)
(17.5987 0.0598788 3.79834e-13)
(17.3256 0.0580828 -3.84104e-13)
(17.0575 0.0563166 -2.32248e-12)
(16.7942 0.0545752 9.58046e-13)
(16.5359 0.0528543 -3.92115e-13)
(16.2826 0.0511523 -4.43847e-12)
(16.0345 0.0494724 -2.56976e-12)
(15.7915 0.0478214 -2.02227e-12)
(15.5537 0.0462052 -3.36869e-12)
(15.3211 0.0446301 -2.48165e-12)
(15.0936 0.0431034 -4.91017e-12)
(14.8711 0.0416302 -2.97988e-12)
(14.6536 0.0402124 1.07682e-12)
(14.4407 0.0388498 8.2823e-14)
(14.2325 0.0375399 -1.307e-12)
(14.0288 0.0362793 -3.70526e-12)
(13.8294 0.035064 -6.6987e-12)
(13.6343 0.0338906 -3.33582e-12)
(13.4434 0.032756 -5.23676e-12)
(13.2566 0.0316581 -3.28924e-12)
(13.0739 0.0305956 -3.2423e-13)
(12.8951 0.0295675 -5.64729e-14)
(12.7201 0.0285732 -2.20148e-12)
(12.549 0.0276125 7.88538e-14)
(12.3816 0.0266848 -8.06516e-13)
(12.2178 0.0257899 -1.20727e-12)
(12.0575 0.0249272 -2.00733e-13)
(11.9007 0.0240958 3.94764e-12)
(11.7473 0.023295 -5.29906e-13)
(11.5971 0.0225236 1.1861e-12)
(11.4501 0.0217804 3.51513e-13)
(11.3063 0.021064 -1.80628e-13)
(11.1654 0.0203731 -1.35884e-12)
(11.0275 0.0197065 5.01513e-13)
(10.8925 0.019063 -1.48316e-12)
(10.7603 0.0184416 -7.57568e-13)
(10.6309 0.0178415 2.63816e-12)
(10.5041 0.017262 1.62629e-12)
(10.38 0.0167024 -2.27451e-12)
(10.2584 0.016162 -4.31941e-13)
(10.1393 0.0156404 -2.98117e-12)
(10.0227 0.0151369 -1.82442e-13)
(9.90848 0.0146508 4.19643e-13)
(9.79657 0.0141817 4.05324e-13)
(9.68693 0.0137288 -2.9442e-12)
(9.57951 0.0132917 -4.22582e-13)
(9.47425 0.0128696 2.68318e-14)
(9.37111 0.0124622 1.4904e-12)
(9.27002 0.0120688 -3.49675e-12)
(9.17094 0.0116889 -1.11503e-12)
(9.07382 0.0113221 -3.52479e-12)
(8.97862 0.0109678 -6.23204e-12)
(8.88529 0.0106256 -6.4662e-12)
(8.79378 0.0102951 -3.92754e-12)
(8.70407 0.00997591 -2.10962e-12)
(8.61609 0.00966769 6.48122e-13)
(8.52982 0.00937012 1.47976e-12)
(8.44522 0.00908291 6.12567e-12)
(8.36224 0.00880576 -9.19979e-13)
(8.28086 0.00853838 2.32198e-13)
(8.20104 0.00828045 1.42119e-12)
(8.12274 0.00803169 1.34336e-12)
(8.04593 0.00779169 -2.91032e-12)
(7.97058 0.00756004 -4.45906e-12)
(7.89665 0.00733638 6.21692e-13)
(7.82412 0.0071203 -9.30088e-13)
(7.75295 0.00691136 -1.02688e-12)
(7.68313 0.00670913 -1.0626e-12)
(7.61461 0.00651317 -4.47562e-12)
(7.54737 0.00632311 -1.59109e-12)
(7.48138 0.00613859 -6.97429e-13)
(7.41663 0.00595933 4.46483e-12)
(7.35307 0.00578507 1.16473e-11)
(7.2907 0.0056156 3.43801e-12)
(7.22947 0.00545074 1.42215e-12)
(7.16938 0.00529037 6.79408e-12)
(7.11039 0.00513438 1.24298e-12)
(7.05249 0.00498268 3.9541e-12)
(6.99565 0.00483518 1.3194e-12)
(6.93985 0.00469183 1.74497e-12)
(6.88507 0.00455255 3.1668e-12)
(6.83129 0.00441728 -1.09097e-12)
(6.77849 0.00428595 -1.42531e-12)
(6.72664 0.00415848 7.69798e-13)
(6.67574 0.00403478 2.14254e-12)
(6.62576 0.00391476 1.16922e-11)
(6.57667 0.00379833 4.70402e-12)
(6.52848 0.00368536 5.12633e-13)
(6.48115 0.00357577 1.05148e-12)
(6.43467 0.00346947 -9.69575e-12)
(6.38903 0.00336635 1.18412e-12)
(6.34422 0.00326628 -6.2018e-13)
(6.3002 0.00316916 -9.26223e-12)
(6.25698 0.0030749 -2.27239e-12)
(6.21454 0.00298342 -4.34495e-12)
(6.17285 0.00289465 -4.51407e-12)
(6.13192 0.00280853 -3.54772e-13)
(6.09173 0.00272495 1.73653e-13)
(6.05226 0.00264397 8.99355e-14)
(6.01349 0.00256525 -5.23683e-12)
(5.97543 0.00248919 8.4167e-12)
(5.93804 0.00241465 -2.88792e-12)
(5.90135 0.0023434 -9.48069e-14)
(5.86528 0.00227106 1.6951e-13)
(5.83 0.00220505 3.74273e-13)
(5.79516 0.00212809 -4.45384e-12)
(5.76155 0.00207092 2.62242e-12)
(5.72771 0.00196492 -1.04505e-11)
(5.69692 0.00193495 3.57181e-12)
(5.66314 0.00171096 5.87656e-13)
(5.6396 0.00177568 -3.00227e-12)
(5.60217 0.00109541 -2.86021e-13)
(29.2903 0.00445788 -1.43311e-15)
(29.2871 0.0084999 -6.96718e-13)
(29.2733 0.0115924 1.21429e-12)
(29.2541 0.013694 5.10242e-12)
(29.2328 0.0150676 3.88478e-12)
(29.2099 0.0159432 3.22888e-12)
(29.1858 0.0164613 2.25451e-12)
(29.1608 0.0167356 -1.3339e-12)
(29.1353 0.0168565 -4.5575e-13)
(29.1094 0.0168846 -8.16466e-14)
(29.0833 0.0168588 1.2494e-13)
(29.0569 0.0168047 1.09548e-12)
(29.0303 0.0167384 1.27745e-12)
(29.0035 0.0166691 1.17471e-12)
(28.9765 0.016602 7.32345e-13)
(28.9494 0.0165394 3.95296e-13)
(28.9219 0.0164827 1.09155e-13)
(28.8943 0.0164325 -2.70544e-13)
(28.8664 0.0163888 -4.80737e-13)
(28.8383 0.0163518 -5.46418e-13)
(28.8098 0.0163222 -5.41265e-13)
(28.7811 0.0163012 -7.82572e-13)
(28.7521 0.016291 -1.04031e-12)
(28.7227 0.0162945 -2.07423e-12)
(28.6929 0.0163146 -2.28909e-12)
(28.6627 0.0163536 -3.12333e-12)
(28.632 0.0164124 -2.42175e-12)
(28.6007 0.016491 -4.95759e-12)
(28.5689 0.0165884 -2.7122e-12)
(28.5364 0.0167037 -1.6536e-12)
(28.5031 0.016837 -5.25313e-12)
(28.4691 0.0169907 -4.92793e-12)
(28.4342 0.017169 -4.09825e-12)
(28.3984 0.0173794 -2.57826e-12)
(28.3615 0.0176315 -1.8778e-12)
(28.3233 0.0179376 -1.3581e-12)
(28.2838 0.0183114 2.1219e-12)
(28.2426 0.0187681 1.52034e-12)
(28.1995 0.0193231 1.11542e-12)
(28.1541 0.0199918 -6.51808e-13)
(28.1062 0.0207902 5.76002e-13)
(28.0553 0.0217348 9.61734e-13)
(28.0009 0.0228435 2.08696e-13)
(27.9426 0.0241358 6.51159e-14)
(27.8798 0.025633 1.17779e-13)
(27.8119 0.0273574 3.66423e-13)
(27.7382 0.0293326 9.06884e-14)
(27.658 0.0315824 1.286e-13)
(27.5706 0.0341298 6.44604e-13)
(27.4753 0.0369952 -5.44087e-13)
(27.3712 0.0401944 1.23755e-12)
(27.2576 0.0437325 9.79403e-13)
(27.1337 0.0476034 6.9794e-13)
(26.999 0.0517881 7.24252e-13)
(26.8528 0.0562516 -1.05438e-13)
(26.6947 0.0609454 2.46948e-13)
(26.5245 0.0658091 5.43901e-12)
(26.3418 0.0707726 3.98245e-12)
(26.1466 0.0757576 7.4848e-12)
(25.939 0.080678 6.55071e-12)
(25.7191 0.0854408 7.59014e-12)
(25.4872 0.0899491 6.71156e-12)
(25.2438 0.0941094 5.86597e-12)
(24.9895 0.0978409 5.1668e-12)
(24.725 0.101084 4.02515e-12)
(24.4511 0.103807 5.49169e-12)
(24.1687 0.106002 1.94251e-12)
(23.8788 0.107683 3.27422e-12)
(23.5823 0.108872 2.56144e-12)
(23.28 0.109595 2.99785e-12)
(22.9731 0.109879 3.31835e-12)
(22.6623 0.109749 4.23367e-12)
(22.3488 0.109229 3.66255e-12)
(22.0334 0.108351 3.63016e-12)
(21.717 0.10715 4.79615e-12)
(21.4004 0.105669 2.0749e-12)
(21.0845 0.103947 2.64869e-12)
(20.77 0.102026 3.46291e-12)
(20.4574 0.0999424 3.14546e-12)
(20.1474 0.0977301 4.09481e-12)
(19.8404 0.0954185 5.09499e-12)
(19.5369 0.093035 2.97879e-12)
(19.2371 0.0906057 4.02065e-12)
(18.9413 0.0881553 3.60788e-12)
(18.6498 0.0857066 -3.32722e-13)
(18.3627 0.0832789 1.80585e-13)
(18.0801 0.0808863 2.15074e-12)
(17.802 0.0785369 1.24969e-12)
(17.5284 0.0762325 3.00051e-13)
(17.2594 0.0739698 -1.04966e-12)
(16.995 0.0717425 -2.22926e-12)