--
-- Regular 3x3x3 cornerpoint grid for testing purposes
-- Porosity is entirely random.
-- Permx is exponentially correlated to porosity
-- Copyright 2010 Statoil ASA
-- CC-BY-SA 3.0

GRID

SPECGRID
3 3 3 1 F /

COORD
0 0 0 0 0 1
0.333333 0 0 0.333333 0 1
0.666667 0 0 0.666667 0 1
1 0 0 1 0 1
0 0.333333 0 0 0.333333 1
0.333333 0.333333 0 0.333333 0.333333 1
0.666667 0.333333 0 0.666667 0.333333 1
1 0.333333 0 1 0.333333 1
0 0.666667 0 0 0.666667 1
0.333333 0.666667 0 0.333333 0.666667 1
0.666667 0.666667 0 0.666667 0.666667 1
1 0.666667 0 1 0.666667 1
0 1 0 0 1 1
0.333333 1 0 0.333333 1 1
0.666667 1 0 0.666667 1 1
1 1 0 1 1 1
/

ZCORN
 0 0 0 0 0 0
 0 0 0 0 0 0 0 0 0 0 0 0
 0 0 0 0 0 0 0 0 0 0 0 0
 0 0 0 0 0 0 0.333333 0.333333 0.333333 0.333333 0.333333 0.333333
 0.333333 0.333333 0.333333 0.333333 0.333333 0.333333 0.333333 0.333333 0.333333 0.333333 0.333333 0.333333
 0.333333 0.333333 0.333333 0.333333 0.333333 0.333333 0.333333 0.333333 0.333333 0.333333 0.333333 0.333333
 0.333333 0.333333 0.333333 0.333333 0.333333 0.333333 0.333333 0.333333 0.333333 0.333333 0.333333 0.333333
 0.333333 0.333333 0.333333 0.333333 0.333333 0.333333 0.333333 0.333333 0.333333 0.333333 0.333333 0.333333
 0.333333 0.333333 0.333333 0.333333 0.333333 0.333333 0.333333 0.333333 0.333333 0.333333 0.333333 0.333333
 0.333333 0.333333 0.333333 0.333333 0.333333 0.333333 0.666667 0.666667 0.666667 0.666667 0.666667 0.666667
 0.666667 0.666667 0.666667 0.666667 0.666667 0.666667 0.666667 0.666667 0.666667 0.666667 0.666667 0.666667
 0.666667 0.666667 0.666667 0.666667 0.666667 0.666667 0.666667 0.666667 0.666667 0.666667 0.666667 0.666667
 0.666667 0.666667 0.666667 0.666667 0.666667 0.666667 0.666667 0.666667 0.666667 0.666667 0.666667 0.666667
 0.666667 0.666667 0.666667 0.666667 0.666667 0.666667 0.666667 0.666667 0.666667 0.666667 0.666667 0.666667
 0.666667 0.666667 0.666667 0.666667 0.666667 0.666667 0.666667 0.666667 0.666667 0.666667 0.666667 0.666667
 0.666667 0.666667 0.666667 0.666667 0.666667 0.666667 1 1 1 1 1 1
 1 1 1 1 1 1 1 1 1 1 1 1
 1 1 1 1 1 1 1 1 1 1 1 1
 1 1 1 1 1 1
/

ACTNUM
1   1   1   1   1   1   1   1   1   1   1   1   1   1   1   1   1   1   1   1   1   1   1   1   1   1   1
/

PORO
27*1.0
/

PERMX
27*1.0
/

