<?xml version="1.0"?>
<VTKFile type="UnstructuredGrid" version="0.1" byte_order="LittleEndian">
  <UnstructuredGrid>
    <Piece NumberOfCells="27" NumberOfPoints="64">
      <CellData Scalars="PORO">
        <DataArray type="Float32" Name="PORO" NumberOfComponents="1" format="ascii">
          1 1 1 1 1 1 1 1 1 1 1 1
          1 1 1 1 1 1 1 1 1 1 1 1
          1 1 1
        </DataArray>
        <DataArray type="Float32" Name="PERMX" NumberOfComponents="1" format="ascii">
          1 1 1 1 1 1 1 1 1 1 1 1
          1 1 1 1 1 1 1 1 1 1 1 1
          1 1 1
        </DataArray>
        <DataArray type="Float32" Name="ACTNUM" NumberOfComponents="1" format="ascii">
          1 1 1 1 1 1 1 1 1 1 1 1
          1 1 1 1 1 1 1 1 1 1 1 1
          1 1 1
        </DataArray>
      </CellData>
      <Points>
        <DataArray type="Float32" Name="Coordinates" NumberOfComponents="3" format="ascii">
          0 0 0 0.333333 0 0 0 0.333333 0 0.333333 0.333333 0
          0 0 0.333333 0.333333 0 0.333333 0 0.333333 0.333333 0.333333 0.333333 0.333333
          0.666667 0 0 0.666667 0.333333 0 0.666667 0 0.333333 0.666667 0.333333 0.333333
          1 0 0 1 0.333333 0 1 0 0.333333 1 0.333333 0.333333
          0 0.666667 0 0.333333 0.666667 0 0 0.666667 0.333333 0.333333 0.666667 0.333333
          0.666667 0.666667 0 0.666667 0.666667 0.333333 1 0.666667 0 1 0.666667 0.333333
          0 1 0 0.333333 1 0 0 1 0.333333 0.333333 1 0.333333
          0.666667 1 0 0.666667 1 0.333333 1 1 0 1 1 0.333333
          0 0 0.666667 0.333333 0 0.666667 0 0.333333 0.666667 0.333333 0.333333 0.666667
          0.666667 0 0.666667 0.666667 0.333333 0.666667 1 0 0.666667 1 0.333333 0.666667
          0 0.666667 0.666667 0.333333 0.666667 0.666667 0.666667 0.666667 0.666667 1 0.666667 0.666667
          0 1 0.666667 0.333333 1 0.666667 0.666667 1 0.666667 1 1 0.666667
          0 0 1 0.333333 0 1 0 0.333333 1 0.333333 0.333333 1
          0.666667 0 1 0.666667 0.333333 1 1 0 1 1 0.333333 1
          0 0.666667 1 0.333333 0.666667 1 0.666667 0.666667 1 1 0.666667 1
          0 1 1 0.333333 1 1 0.666667 1 1 1 1 1
        </DataArray>
      </Points>
      <Cells>
        <DataArray type="Int32" Name="connectivity" NumberOfComponents="1" format="ascii">
          0 1 3 2 4 5 7 6 1 8 9 3
          5 10 11 7 8 12 13 9 10 14 15 11
          2 3 17 16 6 7 19 18 3 9 20 17
          7 11 21 19 9 13 22 20 11 15 23 21
          16 17 25 24 18 19 27 26 17 20 28 25
          19 21 29 27 20 22 30 28 21 23 31 29
          4 5 7 6 32 33 35 34 5 10 11 7
          33 36 37 35 10 14 15 11 36 38 39 37
          6 7 19 18 34 35 41 40 7 11 21 19
          35 37 42 41 11 15 23 21 37 39 43 42
          18 19 27 26 40 41 45 44 19 21 29 27
          41 42 46 45 21 23 31 29 42 43 47 46
          32 33 35 34 48 49 51 50 33 36 37 35
          49 52 53 51 36 38 39 37 52 54 55 53
          34 35 41 40 50 51 57 56 35 37 42 41
          51 53 58 57 37 39 43 42 53 55 59 58
          40 41 45 44 56 57 61 60 41 42 46 45
          57 58 62 61 42 43 47 46 58 59 63 62
        </DataArray>
        <DataArray type="Int32" Name="offsets" NumberOfComponents="1" format="ascii">
          8 16 24 32 40 48 56 64 72 80 88 96
          104 112 120 128 136 144 152 160 168 176 184 192
          200 208 216
        </DataArray>
        <DataArray type="UInt8" Name="types" NumberOfComponents="1" format="ascii">
          12 12 12 12 12 12 12 12 12 12 12 12
          12 12 12 12 12 12 12 12 12 12 12 12
          12 12 12
        </DataArray>
      </Cells>
    </Piece>
  </UnstructuredGrid>
</VTKFile>
