/*--------------------------------*- C++ -*----------------------------------*\
| =========                 |                                                 |
| \\      /  F ield         | OpenFOAM: The Open Source CFD Toolbox           |
|  \\    /   O peration     | Version:  1.6                                   |
|   \\  /    A nd           | Web:      www.OpenFOAM.org                      |
|    \\/     M anipulation  |                                                 |
\*---------------------------------------------------------------------------*/
FoamFile
{
    version     2.0;
    format      ascii;
    class       volScalarField;
    location    "4.98";
    object      flowType;
}
// * * * * * * * * * * * * * * * * * * * * * * * * * * * * * * * * * * * * * //

dimensions      [0 0 0 0 0 0 0];

internalField   nonuniform List<scalar> 
43075
(
0.000148212
0.00190651
0.0131785
0.310765
0.672631
0.78031
0.801772
0.81572
0.834995
0.857622
0.888787
0.917208
0.942378
0.968088
0.994449
0.974548
0.94454
0.919809
0.900024
0.872622
0.850253
0.828507
0.803863
0.783719
0.763824
0.752098
0.75877
0.725351
0.654436
0.613992
0.0124556
0.00200033
0.000150382
-3.41375e-05
-0.000524832
-0.000816295
-0.00246046
0.0205746
0.09905
0.378943
0.552227
0.806271
0.92017
0.980832
0.992075
0.989122
0.990126
0.991128
0.987899
0.98468
0.98133
0.969854
0.958447
0.951096
0.94766
0.936315
0.894366
0.710343
0.566946
0.250733
0.0708391
-0.00100666
-0.00261395
-0.000823288
-0.000531423
-3.26541e-05
-2.18922e-05
-0.000252922
-0.000320041
-0.000531361
-0.00148587
-0.00224481
0.227641
0.595923
0.816186
0.827977
0.797843
0.852415
0.910644
0.954839
0.995086
0.976844
0.955631
0.940988
0.938891
0.930431
0.909897
0.872081
0.792391
0.637121
0.86038
0.65191
0.302966
-0.0035003
-0.0012816
-0.000523601
-0.000310465
-0.000252198
-2.14154e-05
4.39757e-06
-1.81441e-08
-6.89156e-05
-0.000158469
-0.00024555
-0.000565058
-0.000437316
0.0877912
0.950787
0.768176
0.932373
0.987935
0.970079
0.985468
0.990397
0.982741
0.983311
0.959167
0.91995
0.874607
0.831036
0.803331
0.714772
0.583566
0.285642
0.180748
-0.00119294
-0.000415657
-0.000237993
-0.000106295
-4.28095e-05
8.22544e-06
5.15331e-06
3.54738e-06
2.01885e-06
-7.12671e-05
-0.00017069
-0.000243409
-0.000361874
-0.000611539
-0.000430948
0.154324
0.91714
0.619178
0.832233
0.941553
0.961999
0.975811
0.987607
0.937474
0.903125
0.896503
0.924322
0.903817
0.782939
0.713082
0.186805
0.593202
-0.00137001
-0.000607365
-0.000337127
-0.000243585
-0.000162559
-7.01676e-05
6.62343e-07
3.3447e-06
2.10206e-06
4.21548e-06
-2.72525e-05
-9.15259e-05
-0.000174749
-0.000267323
-0.000386287
-0.000581639
-8.14232e-05
0.215829
0.614119
0.921329
0.889627
0.985265
0.971958
0.965311
0.994601
0.990461
0.966044
0.832056
0.778928
0.757577
0.196253
0.0898714
-0.00107409
-0.000530922
-0.000351012
-0.000242692
-0.000163426
-8.61733e-05
-2.67375e-05
3.30861e-06
2.04837e-06
8.21754e-07
-8.10867e-07
-2.25803e-05
-6.56668e-05
-0.000126105
-0.000203662
-0.000298435
-0.00041786
-0.000577732
0.000387037
0.191178
0.89361
0.969845
0.920403
0.926852
0.977168
0.926783
0.838995
0.80661
0.996377
0.765924
0.221919
0.0482418
-0.000954563
-0.000533951
-0.00037283
-0.000268825
-0.00018505
-0.000114078
-5.82228e-05
-1.89543e-05
1.3167e-07
8.48701e-07
3.96594e-07
-1.74611e-06
-1.91784e-05
-5.31592e-05
-0.000103565
-0.000167738
-0.000246751
-0.000348455
-0.000477794
-0.000611228
0.00160711
0.364853
0.858568
0.951864
0.91481
0.930387
0.976749
0.92929
0.850765
0.833762
0.274727
0.0424582
-0.000963983
-0.000598232
-0.000441804
-0.000329027
-0.000240159
-0.000165717
-0.00010374
-5.50361e-05
-2.14053e-05
-3.28513e-06
2.55283e-07
9.64084e-08
-3.00398e-06
-1.78486e-05
-4.64643e-05
-8.93066e-05
-0.000145432
-0.000213757
-0.000296929
-0.000409169
-0.000524067
-0.000697119
0.00607294
0.768096
0.871912
0.872094
0.937142
0.954055
0.81802
0.64181
0.630554
0.0554067
-0.000991348
-0.000671403
-0.000518067
-0.000391471
-0.000295116
-0.000217118
-0.000150825
-9.55434e-05
-5.23805e-05
-2.22522e-05
-4.82889e-06
-6.069e-09
3.06714e-08
-2.88381e-06
-1.41906e-05
-3.6922e-05
-6.98619e-05
-0.000115757
-0.000172817
-0.000240036
-0.000320883
-0.000444965
-0.000522105
-0.000622572
0.024541
0.975933
0.858465
0.877198
0.977646
0.942743
0.809423
0.17404
-0.000754781
-0.000675261
-0.000547352
-0.00041011
-0.000313065
-0.000237146
-0.000172195
-0.000117028
-7.22158e-05
-3.83505e-05
-1.5486e-05
-3.02807e-06
1.71019e-08
3.38088e-08
-1.87208e-06
-1.08442e-05
-2.70233e-05
-5.41576e-05
-8.93374e-05
-0.000135866
-0.000192272
-0.000258472
-0.000342552
-0.00047321
-0.000528391
-0.000135143
0.104704
0.818728
0.888736
0.943668
0.840176
0.730271
-6.27994e-05
-0.000673725
-0.000582422
-0.000435212
-0.000333099
-0.000256836
-0.000192508
-0.000137648
-9.20732e-05
-5.59677e-05
-2.92743e-05
-1.18991e-05
-2.19778e-06
7.95297e-09
-7.07009e-08
-2.27044e-06
-1.06423e-05
-2.49763e-05
-4.75636e-05
-8.01777e-05
-0.000118779
-0.00016856
-0.000227812
-0.000298176
-0.000391903
-0.000522494
-0.000624525
0.00206337
0.281458
0.845129
0.999828
0.744429
0.00206716
-0.000805606
-0.000639346
-0.000493754
-0.000381385
-0.000300419
-0.000232198
-0.000173583
-0.00012394
-8.30989e-05
-5.09797e-05
-2.78953e-05
-1.1585e-05
-2.80152e-06
-8.22884e-08
-1.09264e-07
-2.33048e-06
-9.85982e-06
-2.43779e-05
-4.37624e-05
-7.21833e-05
-0.000110768
-0.000154555
-0.000209466
-0.000273282
-0.00034694
-0.000463484
-0.000537117
-0.000599515
0.0133325
0.780542
0.989017
0.0104762
-0.000885217
-0.00067911
-0.000579305
-0.000444001
-0.000357764
-0.000285162
-0.000221831
-0.000166384
-0.000118942
-8.01624e-05
-5.03052e-05
-2.69346e-05
-1.18877e-05
-3.17433e-06
-1.43287e-07
5.9568e-08
-4.14456e-07
-4.64662e-06
-1.47179e-05
-3.21128e-05
-5.35145e-05
-8.44553e-05
-0.000124871
-0.000167252
-0.000220312
-0.000280463
-0.000350781
-0.000469523
-0.00054924
0.000320144
0.0664061
0.0493595
-0.000596287
-0.000675586
-0.000621924
-0.00047122
-0.000383704
-0.000312003
-0.000248608
-0.000192831
-0.000144573
-0.000103644
-6.99123e-05
-4.36082e-05
-2.31401e-05
-1.04755e-05
-2.45859e-06
-7.68473e-08
-1.04486e-07
-1.76324e-06
-6.85119e-06
-1.65159e-05
-3.25297e-05
-5.57997e-05
-8.12221e-05
-0.000114576
-0.000158773
-0.000207643
-0.000261675
-0.000329065
-0.000418754
-0.000503912
-0.000601698
0.0063734
0.00109867
-0.000823414
-0.00069804
-0.000533402
-0.000433217
-0.000354878
-0.000287168
-0.000228035
-0.00017642
-0.00013256
-9.59937e-05
-6.64408e-05
-4.07096e-05
-2.42725e-05
-1.09566e-05
-3.02735e-06
-1.73722e-07
-9.21071e-08
-1.34796e-06
-5.45106e-06
-1.34235e-05
-2.59781e-05
-4.46804e-05
-7.03735e-05
-9.75613e-05
-0.00013467
-0.000175811
-0.000228311
-0.000277735
-0.000336757
-0.000426059
-0.000470417
0.000191892
-0.000837653
-0.000605942
-0.00055109
-0.000435268
-0.000360565
-0.000295231
-0.000237598
-0.000187285
-0.000143644
-0.000106137
-7.59632e-05
-4.94692e-05
-3.00903e-05
-1.58489e-05
-6.21202e-06
-1.3243e-06
-4.83363e-08
7.52074e-08
7.00141e-07
1.28901e-07
-3.50422e-06
-1.06894e-05
-2.20506e-05
-3.96697e-05
-6.54238e-05
-9.03224e-05
-0.00012026
-0.000158311
-0.000203455
-0.000238478
-0.000287916
-0.000295346
6.12621e-05
-0.000377066
-0.000454642
-0.000372212
-0.000321221
-0.000268609
-0.000218873
-0.000174575
-0.000135373
-0.000100929
-7.38059e-05
-4.7684e-05
-2.87527e-05
-1.58875e-05
-5.72008e-06
-8.81421e-07
4.93939e-07
9.78916e-08
-5.25324e-08
-4.63399e-07
-2.42111e-06
-7.38632e-06
-1.59341e-05
-2.85077e-05
-4.54791e-05
-6.81527e-05
-9.87745e-05
-0.000133364
-0.000164533
-0.000205015
-0.000242114
-0.000256273
-0.000202127
0.00297669
-0.000101927
-0.000364805
-0.000360808
-0.000330098
-0.000286974
-0.000241375
-0.000196741
-0.000155614
-0.000121764
-8.80795e-05
-6.17125e-05
-4.25943e-05
-2.57096e-05
-1.39032e-05
-6.20459e-06
-1.78713e-06
-1.24717e-07
1.70802e-09
-2.71058e-07
-2.22463e-06
-7.40995e-06
-1.62385e-05
-2.90611e-05
-4.60704e-05
-6.71103e-05
-9.24159e-05
-0.000124427
-0.000157233
-0.000176451
-0.000196534
-0.000157689
8.97586e-05
0.0156737
0.00044104
-0.000204428
-0.000280523
-0.000285496
-0.000263655
-0.000230119
-0.000193278
-0.000157491
-0.00012356
-9.16712e-05
-6.90928e-05
-4.66314e-05
-2.92643e-05
-1.63429e-05
-7.40139e-06
-2.08642e-06
-1.19454e-07
-1.75692e-07
-2.02015e-06
-5.80535e-06
-1.20706e-05
-2.11808e-05
-3.32922e-05
-4.85589e-05
-6.672e-05
-8.66449e-05
-0.000106527
-0.000125912
-0.000138365
-0.000113713
-2.13303e-05
0.000475408
0.0450714
0.000937011
-2.08289e-05
-0.000170107
-0.000207366
-0.000207251
-0.000190619
-0.000166957
-0.000140706
-0.000110092
-8.85657e-05
-6.47332e-05
-4.44562e-05
-2.8833e-05
-1.68098e-05
-8.12793e-06
-2.56496e-06
-1.81362e-07
-2.38165e-07
-2.13363e-06
-6.12672e-06
-1.2416e-05
-2.10789e-05
-3.20822e-05
-4.53519e-05
-6.02337e-05
-7.55738e-05
-8.89717e-05
-9.6248e-05
-8.78677e-05
-4.703e-05
9.86838e-05
0.000875306
0.1299
0.00133905
0.000122195
-8.5941e-05
-0.000146235
-0.000161149
-0.000155981
-0.000140484
-0.000119951
-9.80371e-05
-7.63265e-05
-5.55226e-05
-3.87915e-05
-2.50603e-05
-1.43244e-05
-6.67674e-06
-1.97901e-06
-1.72289e-07
1.75617e-07
2.31254e-06
4.00552e-06
2.87284e-06
-7.54639e-07
-6.72493e-06
-1.45064e-05
-2.31187e-05
-3.09996e-05
-3.55316e-05
-3.21217e-05
-9.04302e-06
5.38567e-05
0.000258443
0.00136437
0.376603
0.00165117
0.000273218
2.49037e-05
-5.50561e-05
-8.37843e-05
-8.99235e-05
-8.40693e-05
-7.15489e-05
-5.85145e-05
-4.23857e-05
-2.86269e-05
-1.68077e-05
-7.53548e-06
-1.2885e-06
1.76121e-06
1.62367e-06
1.62268e-07
3.32813e-07
3.75342e-06
8.70412e-06
1.19164e-05
1.3652e-05
1.41294e-05
1.37829e-05
1.34571e-05
1.49598e-05
2.15618e-05
3.97228e-05
7.44807e-05
0.000163464
0.000416018
0.00179095
0.976213
0.0017176
0.000358599
0.0001045
1.78673e-05
-1.79885e-05
-3.20184e-05
-3.46364e-05
-3.08214e-05
-2.47051e-05
-1.70433e-05
-9.64975e-06
-3.40795e-06
1.08643e-06
3.51405e-06
3.78329e-06
1.96016e-06
2.11578e-07
-6.74934e-08
-1.59956e-07
8.89884e-07
1.8203e-06
2.54757e-06
3.25996e-06
4.40658e-06
6.84722e-06
1.227e-05
2.35602e-05
4.62014e-05
8.92593e-05
0.00018386
0.000466807
0.00206288
0.393397
0.00163872
0.000357766
0.000111696
2.64599e-05
-1.05295e-05
-2.73016e-05
-3.37088e-05
-3.45173e-05
-3.13167e-05
-2.66263e-05
-2.1355e-05
-1.60974e-05
-1.1328e-05
-7.29746e-06
-4.14935e-06
-1.79695e-06
-1.72485e-07
-2.24195e-07
-1.0851e-06
-1.75929e-06
-2.5883e-06
-3.44586e-06
-4.06969e-06
-3.87254e-06
-2.0418e-06
2.81764e-06
1.26701e-05
3.04033e-05
7.23167e-05
0.000170896
0.000482438
0.0023661
0.211636
0.00168958
0.000380166
0.000119856
2.96631e-05
-9.16118e-06
-2.68592e-05
-3.37681e-05
-3.39392e-05
-3.14968e-05
-2.65855e-05
-2.08327e-05
-1.5203e-05
-1.02216e-05
-6.16277e-06
-3.18488e-06
-1.189e-06
-1.89235e-07
1.79352e-07
3.95557e-06
9.98926e-06
1.60755e-05
2.24368e-05
2.91924e-05
3.62203e-05
4.38494e-05
5.29065e-05
6.56854e-05
8.75444e-05
0.000133605
0.000245729
0.000600609
0.00283569
0.13649
0.00177511
0.000449673
0.000179475
8.7007e-05
4.84022e-05
3.18543e-05
2.52854e-05
2.28611e-05
2.3213e-05
2.34174e-05
2.32027e-05
2.19106e-05
1.92442e-05
1.52641e-05
1.02499e-05
4.40802e-06
2.76167e-07
6.8071e-07
9.25635e-06
2.2911e-05
3.66235e-05
5.03693e-05
6.39887e-05
7.76181e-05
9.20582e-05
0.000108625
0.000130266
0.000163408
0.000220622
0.000348917
0.000736929
0.00321067
0.0919021
0.00173652
0.000504602
0.000248874
0.00015894
0.000119397
9.95613e-05
8.8114e-05
7.95958e-05
7.34193e-05
6.66602e-05
5.92853e-05
5.10236e-05
4.17464e-05
3.13375e-05
2.01207e-05
8.3522e-06
6.65632e-07
8.73174e-07
1.07436e-05
2.68675e-05
4.29042e-05
5.8729e-05
7.40702e-05
8.96075e-05
0.000106516
0.000126762
0.000153169
0.000191273
0.000255287
0.000388957
0.000782657
0.0033335
0.0628788
0.00159035
0.00050621
0.00027207
0.000184513
0.0001422
0.000117532
0.000101474
9.03579e-05
8.05164e-05
7.21098e-05
6.35237e-05
5.42438e-05
4.39943e-05
3.26558e-05
2.0599e-05
8.29414e-06
7.02523e-07
7.06492e-07
9.15754e-06
2.45739e-05
4.14389e-05
5.92676e-05
7.75051e-05
9.61109e-05
0.000115376
0.00013645
0.000161798
0.000197255
0.000257341
0.000384888
0.000767398
0.00333
0.0460399
0.00140268
0.000457806
0.000249527
0.000171456
0.000133209
0.000111418
9.73287e-05
8.70571e-05
7.82789e-05
6.97665e-05
6.06173e-05
5.04839e-05
3.93522e-05
2.7721e-05
1.63181e-05
5.96067e-06
4.54988e-07
4.56811e-07
6.86156e-06
2.01232e-05
3.61434e-05
5.40927e-05
7.32379e-05
9.2884e-05
0.000112812
0.000133442
0.000156857
0.00018847
0.000242403
0.000361453
0.000731262
0.00332348
0.0349079
0.00124592
0.000406227
0.000221654
0.000155419
0.000124542
0.00010754
9.6087e-05
8.67235e-05
7.77147e-05
6.81785e-05
5.77663e-05
4.65258e-05
3.48241e-05
2.32792e-05
1.275e-05
4.20336e-06
2.48461e-07
3.18387e-07
5.37964e-06
1.66019e-05
3.08054e-05
4.71828e-05
6.47983e-05
8.29944e-05
0.000101341
0.000120361
0.000141972
0.000171406
0.000222325
0.00033672
0.000699674
0.00335375
0.0280263
0.00114412
0.000375641
0.000205993
0.000146384
0.000119957
0.000105377
9.50892e-05
8.59788e-05
7.6669e-05
6.664e-05
5.5812e-05
4.43535e-05
3.27009e-05
2.14991e-05
1.15581e-05
3.74038e-06
2.02948e-07
2.54241e-07
4.78577e-06
1.50062e-05
2.81708e-05
4.33842e-05
5.97734e-05
7.67765e-05
9.40814e-05
0.000112272
0.00013324
0.000162141
0.000212408
0.000325082
0.000686274
0.00340781
0.0231306
0.00107485
0.000361275
0.000202101
0.000145342
0.000120218
0.000106353
9.62815e-05
8.68937e-05
7.70894e-05
6.66241e-05
5.55117e-05
4.4012e-05
3.24743e-05
2.14704e-05
1.16846e-05
3.86514e-06
2.09182e-07
2.34306e-07
4.58597e-06
1.40215e-05
2.6015e-05
3.99355e-05
5.52043e-05
7.14275e-05
8.8695e-05
0.000107638
0.000130213
0.000160988
0.000212845
0.00032547
0.000683158
0.0034294
0.0194298
0.00102346
0.000361786
0.000211054
0.00015544
0.000128638
0.000112482
0.000100364
8.94202e-05
7.87603e-05
6.77795e-05
5.63784e-05
4.47012e-05
3.30877e-05
2.20391e-05
1.22998e-05
4.30469e-06
2.68578e-07
3.08131e-07
5.04685e-06
1.47384e-05
2.69246e-05
4.14444e-05
5.74415e-05
7.4311e-05
9.21599e-05
0.000111761
0.000135396
0.000168191
0.000221719
0.000334851
0.000683307
0.0034085
0.0162356
0.000970597
0.000368759
0.000226676
0.000171284
0.000142435
0.000124228
0.000110723
9.96465e-05
8.90517e-05
7.78218e-05
6.56398e-05
5.25448e-05
3.91519e-05
2.62464e-05
1.4746e-05
5.31709e-06
3.45231e-07
4.39263e-07
6.90861e-06
1.9316e-05
3.46687e-05
5.21626e-05
7.08035e-05
8.98785e-05
0.000109328
0.000129803
0.000153634
0.000186477
0.00024035
0.000351346
0.000686477
0.0033577
0.0136488
0.00090336
0.000370653
0.000240597
0.000188802
0.000161592
0.00014483
0.000132657
0.000121886
0.000110473
9.77664e-05
8.3605e-05
6.82104e-05
5.20935e-05
3.59407e-05
2.07707e-05
7.73034e-06
5.16476e-07
6.66446e-07
9.7186e-06
2.57752e-05
4.43899e-05
6.45804e-05
8.5685e-05
0.000107459
0.000129737
0.000153141
0.000179286
0.000212391
0.000264842
0.00037006
0.000686403
0.00324522
0.011251
0.000819534
0.000361512
0.000248826
0.000205232
0.000182466
0.000167549
0.00015507
0.000142022
0.000127801
0.000112369
9.57487e-05
7.82516e-05
6.02353e-05
4.23069e-05
2.53163e-05
9.85848e-06
7.86894e-07
8.91031e-07
1.10841e-05
2.8761e-05
4.85062e-05
7.02713e-05
9.33536e-05
0.000117467
0.000142476
0.000168877
0.000198152
0.000233576
0.000285165
0.000385475
0.000683722
0.00309261
0.0092134
0.000716373
0.000335195
0.000245089
0.000209469
0.000190269
0.000175459
0.000161223
0.0001463
0.000130441
0.000113501
9.5561e-05
7.69648e-05
5.83249e-05
4.03216e-05
2.37633e-05
9.09468e-06
7.69449e-07
8.56711e-07
1.02135e-05
2.71723e-05
4.67415e-05
6.88097e-05
9.25905e-05
0.000117419
0.000143147
0.00016998
0.000199439
0.000235083
0.000285747
0.000380797
0.00065684
0.0028928
0.00752422
0.000619547
0.000303909
0.000230915
0.000201092
0.00018342
0.000168892
0.000154704
0.000140043
0.000124246
0.00010722
8.92061e-05
7.07369e-05
5.25125e-05
3.52523e-05
1.98811e-05
7.09322e-06
5.67368e-07
6.73582e-07
8.57353e-06
2.40158e-05
4.27117e-05
6.40316e-05
8.71695e-05
0.000111473
0.000136448
0.000162253
0.000190032
0.000223327
0.000270997
0.000359349
0.000611543
0.0026892
0.00618974
0.000532432
0.000266382
0.000205719
0.000181385
0.000166195
0.000153685
0.000141214
0.000127685
0.000112768
9.65159e-05
7.93442e-05
6.19263e-05
4.49585e-05
2.93067e-05
1.58063e-05
5.22774e-06
3.87106e-07
4.87845e-07
6.57744e-06
1.96862e-05
3.63256e-05
5.57973e-05
7.72522e-05
9.9888e-05
0.000123178
0.000146974
0.000172292
0.000202226
0.000244739
0.00032516
0.000556474
0.002478
0.00507158
0.000454943
0.000231092
0.000179411
0.000158612
0.000146033
0.000135272
0.000124128
0.000111723
9.78668e-05
8.27347e-05
6.68909e-05
5.09804e-05
3.58255e-05
2.22656e-05
1.11104e-05
3.17489e-06
1.82726e-07
2.88813e-07
4.45247e-06
1.47624e-05
2.87966e-05
4.58052e-05
6.49464e-05
8.5393e-05
0.000106519
0.00012806
0.000150937
0.000177955
0.000216558
0.000289354
0.000501521
0.00227633
0.00434316
0.000387284
0.00019688
0.000152748
0.000135502
0.000124865
0.000115488
0.000105613
9.44697e-05
8.19135e-05
6.83167e-05
5.41461e-05
4.01128e-05
2.70555e-05
1.57761e-05
7.07479e-06
1.53386e-06
3.33135e-08
8.86367e-08
2.35069e-06
9.70099e-06
2.07837e-05
3.4939e-05
5.13284e-05
6.9122e-05
8.75669e-05
0.000106615
0.000126866
0.000150968
0.00018565
0.000250501
0.000442033
0.00210975
0.00379155
0.000352969
0.000175223
0.000134627
0.000118855
0.000109353
0.000100978
9.19743e-05
8.17529e-05
7.03314e-05
5.79717e-05
4.51849e-05
3.26733e-05
2.12189e-05
1.16224e-05
4.6438e-06
6.78142e-07
-3.96844e-08
-3.12796e-08
9.87482e-07
6.0893e-06
1.47593e-05
2.65616e-05
4.07066e-05
5.63184e-05
7.27838e-05
8.99196e-05
0.000108307
0.000130217
0.000161651
0.000221795
0.000400812
0.00198288
0.00336057
0.000326773
0.000160657
0.00012321
0.000107948
9.89203e-05
9.10549e-05
8.2582e-05
7.31003e-05
6.25749e-05
5.12303e-05
3.96135e-05
2.83243e-05
1.81071e-05
9.66271e-06
3.63597e-06
4.2952e-07
-7.05825e-08
-8.99805e-08
3.36329e-07
4.02273e-06
1.10465e-05
2.09486e-05
3.30856e-05
4.67418e-05
6.1414e-05
7.69191e-05
9.39277e-05
0.000114375
0.000143653
0.000199439
0.000365884
0.001859
0.00305491
0.000312277
0.000158032
0.000120563
0.00010607
9.68722e-05
8.89863e-05
8.08003e-05
7.16954e-05
6.16107e-05
5.07657e-05
3.96175e-05
2.87792e-05
1.88615e-05
1.0553e-05
4.44159e-06
8.94295e-07
-3.12272e-08
-9.41161e-08
3.8965e-07
3.61964e-06
9.87733e-06
1.87482e-05
2.98299e-05
4.25669e-05
5.63848e-05
7.11025e-05
8.72816e-05
0.000106899
0.000135273
0.000187728
0.000342134
0.0017523
0.00280074
0.000302335
0.000160513
0.000124619
0.000109409
9.98486e-05
9.18614e-05
8.37125e-05
7.46456e-05
6.45868e-05
5.37501e-05
4.25663e-05
3.15692e-05
2.13738e-05
1.26324e-05
5.9305e-06
1.65771e-06
2.9477e-08
-3.93359e-08
9.0547e-07
4.51535e-06
1.07688e-05
1.94717e-05
3.0095e-05
4.21664e-05
5.53233e-05
6.95573e-05
8.57499e-05
0.000105178
0.000132761
0.000183213
0.00032712
0.00167521
0.00258366
0.000305611
0.000169186
0.000134603
0.00011865
0.000108572
9.9954e-05
9.11756e-05
8.16047e-05
7.10674e-05
5.98143e-05
4.81784e-05
3.66867e-05
2.58825e-05
1.62516e-05
8.29485e-06
2.68791e-06
9.5048e-08
3.1146e-08
1.71137e-06
5.98684e-06
1.28107e-05
2.20058e-05
3.30572e-05
4.55128e-05
5.9068e-05
7.37285e-05
8.97238e-05
0.000109186
0.000135792
0.00018375
0.000318272
0.00159268
0.0023497
0.000302503
0.000176597
0.000143002
0.000128528
0.000119018
0.000110043
0.000100598
9.02835e-05
7.90588e-05
6.70813e-05
5.47534e-05
4.25167e-05
3.08712e-05
2.03164e-05
1.1298e-05
4.07719e-06
2.593e-07
1.13921e-07
2.97202e-06
8.87176e-06
1.71491e-05
2.72564e-05
3.88459e-05
5.1674e-05
6.55578e-05
8.03841e-05
9.68801e-05
0.000115103
0.000140079
0.000183136
0.000305508
0.00147143
0.0021008
0.000300047
0.000185779
0.000156171
0.000143069
0.00013323
0.000123632
0.000113267
0.000101921
8.96013e-05
7.65069e-05
6.30104e-05
4.95727e-05
3.67367e-05
2.50042e-05
1.48675e-05
5.91711e-06
5.25149e-07
2.69837e-07
4.05167e-06
1.13118e-05
2.04177e-05
3.14092e-05
4.39685e-05
5.77807e-05
7.26053e-05
8.8436e-05
0.000105125
0.000124629
0.000148642
0.000188753
0.000299933
0.00137982
0.00188297
0.000296477
0.000194353
0.000169149
0.000156338
0.000145822
0.000135256
0.000123783
0.00011123
9.7702e-05
8.3472e-05
6.88775e-05
5.44136e-05
4.04774e-05
2.75649e-05
1.62053e-05
6.46308e-06
5.29938e-07
5.31704e-07
6.06146e-06
1.47749e-05
2.46296e-05
3.61538e-05
4.92271e-05
6.35299e-05
7.87968e-05
9.49724e-05
0.000112176
0.000131379
0.000155102
0.000192604
0.000291157
0.00127901
0.00175483
0.000313487
0.000214844
0.000187847
0.000172436
0.000159924
0.000147568
0.000134579
0.000120663
0.000105869
9.04287e-05
7.47758e-05
5.92238e-05
4.42636e-05
3.02768e-05
1.7697e-05
7.1462e-06
6.51781e-07
4.76006e-07
5.66769e-06
1.46795e-05
2.53378e-05
3.77117e-05
5.14175e-05
6.62419e-05
8.19872e-05
9.84339e-05
0.000115737
0.00013451
0.000157013
0.00019016
0.000274265
0.00110549
0.00167633
0.000349724
0.000248466
0.000213422
0.000192966
0.000176414
0.000160986
0.000145468
0.000129391
0.000112758
9.57317e-05
7.86259e-05
6.19002e-05
4.5991e-05
3.12064e-05
1.79224e-05
6.43758e-06
5.46643e-07
4.39263e-07
5.56199e-06
1.43186e-05
2.45699e-05
3.62968e-05
4.91699e-05
6.2901e-05
7.72389e-05
9.18516e-05
0.000106562
0.000122006
0.000138612
0.000158884
0.000206595
0.000801425
0.00172253
0.000412132
0.000291365
0.000245307
0.000217031
0.000195168
0.000175517
0.000156689
0.000137947
0.00011902
0.000100067
8.12656e-05
6.31164e-05
4.60389e-05
3.05004e-05
1.68838e-05
5.50836e-06
2.58799e-07
5.9564e-07
5.61809e-06
1.36397e-05
2.27722e-05
3.29578e-05
4.39513e-05
5.55269e-05
6.7273e-05
7.85956e-05
8.88935e-05
9.76271e-05
0.000100443
9.83683e-05
9.02412e-05
0.0004042
0.00190806
0.000514874
0.000357269
0.000294116
0.000255146
0.000225328
0.000199657
0.000175839
0.000152923
0.000130522
0.000108625
8.74573e-05
6.74027e-05
4.89085e-05
3.24459e-05
1.83866e-05
6.64472e-06
4.69494e-07
4.59813e-07
4.72818e-06
1.0932e-05
1.79407e-05
2.54217e-05
3.30211e-05
4.03232e-05
4.66886e-05
5.14319e-05
5.2425e-05
4.14164e-05
3.02406e-05
-1.57647e-05
-0.000117437
-0.000300031
0.00238782
0.000718173
0.000481436
0.000382066
0.000322007
0.000278127
0.000242161
0.000210467
0.000181156
0.000153393
0.000126889
0.000101705
7.81577e-05
5.66496e-05
3.75384e-05
2.1371e-05
7.87146e-06
5.31879e-07
7.43073e-08
4.8442e-07
1.30822e-06
2.18196e-06
2.65393e-06
2.48035e-06
1.02088e-06
-2.98194e-06
-1.12225e-05
-2.52781e-05
-5.32625e-05
-0.000106516
-0.000216271
-0.000464201
-0.00139013
0.00338746
0.00106259
0.000683752
0.000521191
0.000424381
0.000356186
0.000302742
0.000257486
0.000217166
0.000180353
0.000146319
0.000114927
8.62557e-05
6.07377e-05
3.90577e-05
2.01886e-05
6.91575e-06
3.58357e-07
-1.28984e-07
-2.83133e-06
-6.93736e-06
-1.28118e-05
-2.04798e-05
-3.04342e-05
-4.37268e-05
-6.22085e-05
-8.87534e-05
-0.00013041
-0.000194185
-0.000299961
-0.000497634
-0.000956694
-0.0029112
0.00488332
0.00157065
0.000986561
0.000732757
0.000584057
0.000481467
0.000403169
0.000338946
0.000283338
0.000233458
0.000188035
0.000146455
0.000108958
7.59967e-05
4.61796e-05
2.67755e-05
6.96245e-06
6.202e-07
-5.89244e-07
-8.94448e-06
-2.4567e-05
-4.44476e-05
-6.86448e-05
-9.74089e-05
-0.000132359
-0.000176452
-0.000235245
-0.000316209
-0.000423503
-0.000630267
-0.000982426
-0.00179756
-0.00547857
0.00754602
0.0024554
0.0015067
0.00109248
0.000852084
0.000689431
0.000567942
0.000470591
0.000388064
0.00031607
0.000252176
0.000195091
0.000144039
9.79399e-05
6.62073e-05
3.21167e-05
1.03358e-05
7.99811e-07
-8.96017e-07
-1.61996e-05
-4.36662e-05
-7.92626e-05
-0.000122944
-0.000175207
-0.000238164
-0.000316062
-0.000417198
-0.000554119
-0.000748889
-0.001079
-0.00164063
-0.00296151
-0.00912131
0.0113769
0.00374138
0.00227836
0.00163752
0.00126695
0.00101805
0.000833539
0.000687291
0.000565311
0.000459297
0.000365534
0.00028219
0.000208566
0.000149075
9.31221e-05
4.74804e-05
1.91787e-05
1.51895e-06
-2.61673e-06
-3.2491e-05
-8.64425e-05
-0.000152146
-0.000231407
-0.000325142
-0.000436458
-0.000571966
-0.000743141
-0.000973979
-0.00131888
-0.00183012
-0.00277694
-0.00493692
-0.0151734
0.0175746
0.00579137
0.00348349
0.00247058
0.00188704
0.00149964
0.00121671
0.000994956
0.000811747
0.000657422
0.000522696
0.000401792
0.000294905
0.000203276
0.000119398
6.66662e-05
2.27353e-05
1.29782e-06
-2.40646e-06
-4.33804e-05
-0.000121803
-0.000222172
-0.000344787
-0.000490568
-0.000663486
-0.000870429
-0.00112971
-0.00147779
-0.00197741
-0.00276387
-0.00419775
-0.00747441
-0.0232191
0.0259402
0.00866665
0.00522861
0.00371274
0.00284057
0.00226105
0.00183683
0.00150527
0.00123282
0.000998646
0.000794792
0.00061774
0.000464948
0.000326037
0.00021556
0.00011848
4.02392e-05
3.03065e-06
-6.34451e-06
-7.86013e-05
-0.000212172
-0.000374681
-0.000570008
-0.000800338
-0.00107425
-0.00140648
-0.00182677
-0.0023846
-0.00317837
-0.00441052
-0.00660831
-0.0116853
-0.0364561
0.0387176
0.0129752
0.00777051
0.00547699
0.00415438
0.00327786
0.00264194
0.00214708
0.00174489
0.00140222
0.00110529
0.000849884
0.000626145
0.000435857
0.000276793
0.000146217
4.93603e-05
2.92103e-06
-5.33608e-06
-9.77304e-05
-0.000277784
-0.000509931
-0.000794341
-0.00112939
-0.00151928
-0.00200099
-0.00260901
-0.00341577
-0.00457037
-0.00638427
-0.00963361
-0.0171416
-0.0543085
0.0557239
0.0189839
0.0114366
0.00808653
0.0061593
0.00488004
0.00395065
0.00322844
0.0026369
0.00213867
0.00170671
0.00132456
0.000987721
0.000694451
0.000444533
0.000242843
8.57093e-05
6.5542e-06
-1.40415e-05
-0.000171523
-0.000463021
-0.000818098
-0.00124671
-0.00175585
-0.00236262
-0.00309287
-0.00400423
-0.00520698
-0.00691708
-0.00959226
-0.0143941
-0.0255574
-0.0817108
0.0797981
0.0274664
0.0165265
0.0116561
0.00885091
0.00699107
0.00563888
0.00459174
0.00373785
0.00301594
0.00239149
0.00184334
0.0013683
0.000957925
0.00061171
0.00033141
0.000116088
6.92092e-06
-1.04205e-05
-0.000197923
-0.000573107
-0.00105987
-0.00165086
-0.0023496
-0.00320376
-0.00423307
-0.00553394
-0.0072662
-0.00973645
-0.0136021
-0.020555
-0.0367911
-0.12069
0.111214
0.0390515
0.0236065
0.0166991
0.0127029
0.0100504
0.00812015
0.00662318
0.00540452
0.0043757
0.00348549
0.00270797
0.00202505
0.00143393
0.000929174
0.000512411
0.000180866
1.43433e-05
-2.84885e-05
-0.000345906
-0.000929406
-0.0016505
-0.00252569
-0.00356415
-0.00478627
-0.00626133
-0.00810662
-0.010554
-0.0140502
-0.0195417
-0.0294605
-0.0527926
-0.177574
0.151815
0.0543811
0.0329861
0.0233808
0.0177866
0.0140685
0.0113631
0.00925855
0.00754361
0.00609561
0.0048429
0.00374838
0.0027893
0.0019579
0.001253
0.000680403
0.000240302
1.35889e-05
-1.72759e-05
-0.000361074
-0.00110015
-0.00204407
-0.00321802
-0.00465022
-0.00635575
-0.00843808
-0.0110618
-0.0145452
-0.0195141
-0.0273166
-0.0414281
-0.0750012
-0.261711
0.203699
0.0749286
0.0457435
0.032492
0.0247687
0.019618
0.015866
0.0129512
0.010577
0.00856877
0.00683129
0.00531141
0.00397891
0.00281973
0.00183009
0.00101234
0.000356762
2.98109e-05
-5.38714e-05
-0.000696429
-0.00179308
-0.00316439
-0.00483608
-0.00680502
-0.00913864
-0.0119648
-0.0155258
-0.02028
-0.0271031
-0.03789
-0.0575707
-0.105079
-0.383391
0.264224
0.10069
0.0620125
0.0442009
0.033758
0.0267842
0.0216917
0.017722
0.0144812
0.011733
0.00934881
0.00725525
0.00541468
0.00381219
0.00244713
0.00133315
0.000474007
2.42364e-05
-4.25793e-05
-0.000656972
-0.00203185
-0.00385788
-0.00613485
-0.00886575
-0.0121357
-0.016099
-0.0210762
-0.0276902
-0.0371611
-0.0521609
-0.0796921
-0.147238
-0.562774
0.336894
0.133602
0.0829643
0.0594137
0.0455298
0.0361929
0.0293743
0.02406
0.0197101
0.016018
0.0128091
0.00998989
0.00750409
0.00533419
0.00347384
0.00192971
0.000677143
6.06209e-05
-8.80801e-05
-0.00130566
-0.00330242
-0.00582307
-0.00886458
-0.0124579
-0.0167375
-0.021945
-0.0285382
-0.0373714
-0.0501287
-0.0704494
-0.108234
-0.202828
-0.715562
0.414968
0.172587
0.108527
0.0781932
0.0601806
0.0480409
0.0391199
0.0321381
0.026415
0.0215413
0.0172762
0.0135037
0.0101539
0.00720052
0.00465233
0.0025458
0.000911787
3.93418e-05
-9.54655e-05
-0.00118049
-0.00389595
-0.00731986
-0.0115429
-0.0165543
-0.0224691
-0.0295892
-0.0385201
-0.0504336
-0.067628
-0.0951841
-0.146884
-0.279876
-0.525851
0.500116
0.218669
0.139495
0.101212
0.0782432
0.0627321
0.0513274
0.0423877
0.0350298
0.028739
0.0232193
0.0182969
0.0138937
0.00997577
0.00655815
0.00367552
0.00128015
0.000123924
-0.000159758
-0.00265463
-0.00619235
-0.010722
-0.0161753
-0.0226009
-0.0302131
-0.0394188
-0.0510344
-0.066625
-0.089297
-0.125909
-0.195654
-0.379805
-0.265385
0.583335
0.269507
0.174643
0.127854
0.099535
0.0802685
0.0660823
0.0549488
0.045768
0.0378887
0.0309376
0.0246841
0.0190024
0.0138379
0.00918872
0.00515437
0.0018913
6.72083e-05
-0.000244154
-0.00247223
-0.00811379
-0.014594
-0.0222761
-0.0311216
-0.0412764
-0.0532973
-0.0683311
-0.0884717
-0.117947
-0.165999
-0.259258
-0.50603
-0.0569977
0.662358
0.324052
0.213561
0.15775
0.123706
0.100456
0.083303
0.0698476
0.0587489
0.0492229
0.0407704
0.0331162
0.0260863
0.0195867
0.0135627
0.00803652
0.00289433
0.000291209
-0.000414906
-0.00669897
-0.013122
-0.0215475
-0.0315794
-0.0427616
-0.0554361
-0.0704531
-0.0893154
-0.114809
-0.152418
-0.214398
-0.336921
-0.630264
0.0960899
0.733054
0.377776
0.253448
0.189161
0.149471
0.122256
0.102145
0.0864596
0.073555
0.06249
0.0526817
0.0437596
0.0355553
0.0279247
0.0206242
0.0133124
0.00568545
0.000265261
-0.000738036
-0.00553756
-0.0198059
-0.0340237
-0.047548
-0.0612376
-0.0763043
-0.0941885
-0.116968
-0.148189
-0.195003
-0.273429
-0.430091
-0.645569
0.211465
0.789355
0.428547
0.292624
0.220492
0.17546
0.144488
0.12165
0.103844
0.0892986
0.0768886
0.0659342
0.0559295
0.046636
0.0381031
0.0303335
0.0225382
0.011038
0.00123199
-0.0120651
-0.0142692
-0.0371766
-0.053352
-0.0680129
-0.0831452
-0.10052
-0.121642
-0.148891
-0.186753
-0.244378
-0.341889
-0.53632
-0.524431
0.299932
0.83216
0.472668
0.328103
0.249349
0.199575
0.16526
0.13988
0.120079
0.103997
0.0903921
0.0784914
0.0677065
0.0575415
0.0478493
0.0393302
0.0330797
0.0266867
-0.00298746
0.880377
0.661423
0.484646
0.379492
0.303329
0.243341
0.196839
0.161063
0.133323
0.111543
0.0942459
0.080359
0.0690863
0.0598408
0.0521885
0.0458005
0.0404257
0.0358707
0.0319893
0.0286636
0.0258023
0.0233363
0.0212072
0.019367
0.0177817
0.016421
0.0152674
0.0142958
0.0135105
0.0128819
0.0124464
0.0121468
0.0120895
0.012145
0.0125495
0.0130835
0.014097
0.0156064
0.0160386
0.0183773
0.0233518