/*--------------------------------*- C++ -*----------------------------------*\
| =========                 |                                                 |
| \\      /  F ield         | OpenFOAM: The Open Source CFD Toolbox           |
|  \\    /   O peration     | Version:  1.7.x                                 |
|   \\  /    A nd           | Web:      www.OpenFOAM.com                      |
|    \\/     M anipulation  |                                                 |
\*---------------------------------------------------------------------------*/
FoamFile
{
    version     2.0;
    format      ascii;
    class       volScalarField;
    location    "1000";
    object      epsilon;
}
// * * * * * * * * * * * * * * * * * * * * * * * * * * * * * * * * * * * * * //

dimensions      [0 2 -3 0 0 0 0];

internalField   nonuniform List<scalar> 
52875
(
2082.67
295.908
40.3447
5.95595
1.05954
0.251279
0.0758776
0.0258535
0.0100022
0.00488707
0.00312727
0.00243982
0.00213766
0.00199331
0.00192022
0.00188134
0.00185951
0.00184639
0.00183785
0.00183181
0.0018272
0.00182347
0.00182033
0.00181764
0.00181527
0.00181318
0.00181137
0.00180979
0.00180841
0.00180721
0.0018062
0.00180534
0.00180464
0.00180407
0.00180363
0.00180332
0.00180313
0.00180305
0.00180309
0.00180327
0.00180361
0.00180417
0.00180506
0.0018065
0.00180888
0.00181294
0.00182008
0.00183284
0.001856
0.00189858
0.00197809
0.00212999
0.00243121
0.00306465
0.00450908
0.00808732
0.0174128
0.0423177
0.112841
0.348757
1.38614
7.14776
44.4479
307.262
2108.54
1935.23
412.436
95.48
19.7259
3.70924
0.727807
0.179708
0.0571132
0.0209673
0.00902221
0.0048648
0.00327102
0.00258071
0.00224901
0.0020777
0.00198476
0.00193233
0.00190154
0.00188256
0.00187015
0.00186147
0.00185499
0.0018499
0.00184572
0.00184219
0.00183919
0.00183663
0.00183442
0.00183252
0.00183091
0.00182956
0.00182845
0.00182756
0.00182687
0.00182638
0.00182608
0.00182598
0.00182607
0.00182638
0.00182699
0.00182799
0.00182959
0.00183216
0.00183638
0.0018434
0.0018553
0.00187568
0.00191086
0.00197211
0.00207995
0.00227366
0.00263355
0.00333872
0.00482518
0.00822235
0.0165071
0.0375828
0.095414
0.288486
1.11804
5.1318
24.2012
106.063
427.902
1930.5
1682.91
501.419
186.203
63.4327
17.6552
4.00094
0.816891
0.185462
0.0529436
0.0184313
0.00807457
0.0045732
0.00319826
0.00257632
0.00226384
0.00209551
0.00200051
0.00194496
0.00191134
0.00189017
0.00187617
0.0018664
0.00185918
0.00185358
0.00184906
0.00184533
0.00184219
0.00183953
0.00183728
0.00183537
0.00183378
0.00183247
0.00183143
0.00183064
0.00183009
0.00182979
0.00182974
0.00182999
0.00183062
0.00183177
0.00183372
0.00183693
0.0018422
0.0018509
0.00186535
0.00188944
0.00192978
0.00199769
0.00211321
0.00231356
0.00267306
0.00335442
0.00475337
0.0079316
0.0159442
0.0380983
0.107016
0.367217
1.50918
6.38334
24.1189
76.2986
204.781
518.141
1657.82
1571.42
544.171
253.867
118.497
48.5666
16.0694
4.15922
0.891905
0.193987
0.0509731
0.0167671
0.00733629
0.00427673
0.00307685
0.00252498
0.00224164
0.0020855
0.00199536
0.00194146
0.00190818
0.00188688
0.00187265
0.00186269
0.00185536
0.00184973
0.00184525
0.00184159
0.00183856
0.00183602
0.0018339
0.00183215
0.00183073
0.00182961
0.00182878
0.00182825
0.00182802
0.00182815
0.00182873
0.00182993
0.00183203
0.00183555
0.00184134
0.00185081
0.00186629
0.00189161
0.00193314
0.00200162
0.00211581
0.00231025
0.00265377
0.00329854
0.00462498
0.00771481
0.0159842
0.0410591
0.127455
0.476437
1.96922
7.55454
24.1179
62.7889
138.047
275.041
557.889
1536.43
1524.28
557.277
287.911
158.417
82.4716
37.3981
13.7268
3.88426
0.869217
0.18632
0.046832
0.0149964
0.00664257
0.00398712
0.00294279
0.00245697
0.00220426
0.00206312
0.0019805
0.00193041
0.00189906
0.00187876
0.00186509
0.00185548
0.00184843
0.00184305
0.00183881
0.00183538
0.00183258
0.00183027
0.0018284
0.00182689
0.00182574
0.00182493
0.00182448
0.00182443
0.00182488
0.00182599
0.00182808
0.00183164
0.0018375
0.00184705
0.00186249
0.00188747
0.00192793
0.00199386
0.00210262
0.00228625
0.00260898
0.00321483
0.00447373
0.00748738
0.0159746
0.0435332
0.144889
0.566289
2.28945
8.0182
22.6233
52.0181
101.964
180.343
308.113
566.84
1482.18
1499.97
558.263
302.134
180.989
107.772
59.5141
28.579
11.1363
3.31791
0.761324
0.162616
0.040183
0.012936
0.00593138
0.00369598
0.00280336
0.00238188
0.00215996
0.00203474
0.00196073
0.00191542
0.0018868
0.0018681
0.00185542
0.0018465
0.00183996
0.00183499
0.00183111
0.00182801
0.00182551
0.00182352
0.00182196
0.00182081
0.00182007
0.00181977
0.00182001
0.00182094
0.00182285
0.00182622
0.00183185
0.001841
0.00185576
0.00187947
0.00191762
0.0019794
0.0020808
0.00225144
0.00255102
0.00311466
0.00429542
0.00717636
0.0155788
0.0441743
0.153795
0.613985
2.41035
7.84534
20.2837
42.9804
78.4132
129.409
202.826
320.303
564.006
1451.55
1484.7
555.428
307.252
192.546
123.676
76.7471
43.7397
21.6339
8.67112
2.63249
0.606663
0.129632
0.0321951
0.0107575
0.00522145
0.00340787
0.00266333
0.00230454
0.002113
0.00200383
0.00193878
0.00189865
0.00187311
0.0018563
0.00184488
0.00183682
0.00183091
0.00182645
0.00182299
0.00182028
0.00181817
0.00181657
0.00181546
0.00181483
0.00181478
0.00181543
0.00181705
0.00182008
0.00182524
0.00183371
0.00184736
0.00186926
0.00190441
0.00196117
0.00205416
0.00221045
0.00248467
0.00300074
0.00408415
0.00674721
0.01466
0.04241
0.151661
0.61137
2.34217
7.23896
17.6456
35.4422
61.7509
97.6339
145.676
213.389
323.334
557.917
1430.53
1474.08
551.887
308.575
198.247
133.071
88.5619
56.104
32.4164
16.1831
6.50382
1.95374
0.44378
0.0952248
0.0243239
0.00870647
0.00455599
0.00313392
0.00252784
0.00222841
0.00206601
0.00197247
0.00191628
0.00188138
0.00185901
0.00184425
0.00183417
0.00182704
0.00182183
0.00181792
0.00181495
0.00181271
0.00181109
0.00181004
0.0018096
0.00180988
0.00181112
0.00181369
0.00181824
0.00182582
0.00183813
0.00185791
0.00188966
0.00194093
0.00202485
0.00216578
0.00241262
0.00287564
0.00384273
0.00620896
0.0132607
0.0383889
0.139049
0.563516
2.13038
6.38793
15.0178
29.1709
49.3726
75.9986
110.082
154.664
217.883
322.774
551.596
1414.66
1466.33
548.657
308.43
201.015
138.566
96.3028
65.2028
41.6097
24.049
11.9147
4.69144
1.35719
0.299971
0.0651836
0.0176186
0.00695599
0.00396976
0.00288452
0.00240148
0.00215617
0.00202082
0.00194198
0.00189423
0.00186436
0.00184515
0.00183241
0.00182368
0.00181751
0.00181303
0.00180974
0.00180734
0.00180569
0.00180475
0.00180457
0.00180533
0.00180734
0.00181119
0.00181778
0.00182861
0.00184611
0.00187427
0.0019198
0.00199433
0.00211932
0.00233749
0.00274387
0.00358276
0.0056035
0.011555
0.0328232
0.118951
0.484026
1.82983
5.43249
12.5525
23.9433
39.8546
60.3775
85.9106
117.794
159.48
219.469
320.97
545.941
1402.12
1460.59
545.99
307.795
202.338
141.831
101.354
71.6489
48.7846
31.0472
17.742
8.58341
3.23474
0.879552
0.188585
0.042202
0.0125013
0.00556853
0.00347844
0.00266598
0.00228745
0.0020897
0.00197866
0.00191322
0.00187325
0.00184815
0.00183191
0.00182109
0.00181367
0.00180846
0.00180476
0.00180218
0.00180052
0.00179973
0.0017999
0.00180128
0.00180434
0.00180987
0.00181916
0.00183433
0.00185887
0.00189863
0.00196374
0.00207273
0.00226202
0.00261111
0.00331948
0.00498395
0.0097622
0.0266531
0.0953842
0.389217
1.49034
4.46635
10.3145
19.5667
32.3422
48.6111
68.492
92.5915
122.525
162.002
219.702
318.866
541.117
1391.95
1456.34
543.885
307.068
202.954
143.829
104.706
76.1935
54.189
36.7899
23.1452
12.9272
6.00166
2.1106
0.529662
0.111285
0.0263945
0.00889684
0.00452276
0.00308113
0.0024802
0.00218737
0.00203012
0.00194029
0.00188674
0.00185384
0.00183304
0.00181952
0.0018105
0.00180436
0.00180014
0.00179733
0.00179566
0.00179507
0.00179571
0.00179791
0.00180234
0.00181007
0.00182294
0.00184393
0.00187806
0.00193402
0.00202748
0.00218881
0.00248278
0.00306697
0.00439667
0.00807174
0.0207305
0.072087
0.293887
1.15157
3.5489
8.32372
15.8851
26.2907
39.4608
55.3849
74.3247
97.0766
125.44
163.27
219.33
316.826
537.063
1383.59
1453.22
542.269
306.404
203.232
145.099
106.989
79.436
58.2289
41.338
27.7802
17.1253
9.22869
4.02801
1.28645
0.296241
0.0625436
0.016404
0.00648651
0.00375761
0.00276737
0.00232582
0.00210146
0.00197786
0.00190608
0.00186292
0.0018362
0.00181921
0.00180815
0.00180083
0.00179596
0.00179287
0.00179119
0.00179088
0.00179211
0.00179538
0.00180158
0.00181221
0.00182981
0.00185861
0.0019059
0.00198475
0.00211997
0.00236316
0.00283552
0.00387232
0.00660379
0.0156264
0.0517068
0.208895
0.842417
2.7168
6.57915
12.7756
21.3372
32.1668
45.194
60.5078
78.5046
100.116
127.254
163.854
218.709
314.976
533.667
1376.66
1451
541.059
305.855
203.353
145.944
108.596
81.7964
61.2693
44.9004
31.6113
20.8771
12.4866
6.39061
2.55616
0.723228
0.155052
0.0342787
0.0104538
0.00491545
0.00320532
0.00252311
0.00219964
0.002029
0.00193278
0.00187621
0.00184186
0.00182044
0.00180679
0.00179798
0.00179231
0.00178886
0.00178719
0.00178723
0.00178924
0.00179388
0.00180236
0.00181677
0.00184062
0.00187994
0.00194541
0.00205699
0.00225507
0.00263089
0.00342489
0.00540547
0.0115838
0.0355474
0.140255
0.581469
1.99236
5.07093
10.1431
17.2324
26.2391
37.0663
49.7132
64.367
81.5249
102.207
128.393
164.062
218.013
313.345
530.818
1370.86
1449.48
540.18
305.431
203.411
146.537
109.766
83.5563
63.5896
47.6964
34.7318
24.0985
15.5167
8.89494
4.23501
1.50483
0.37266
0.0773612
0.0189791
0.00701515
0.00389558
0.0028077
0.00233448
0.00209774
0.0019687
0.00189463
0.00185051
0.00182349
0.0018066
0.00179593
0.00178926
0.00178538
0.00178372
0.00178421
0.00178721
0.0017936
0.00180504
0.00182436
0.00185648
0.00191001
0.00200075
0.00215987
0.00245505
0.00305552
0.00446957
0.00858389
0.0237546
0.0894711
0.377591
1.38858
3.787
7.91436
13.7999
21.3485
30.4527
41.0645
53.256
67.2914
83.7377
103.672
129.115
164.067
217.323
311.927
528.42
1365.99
1448.53
539.568
305.123
203.451
146.978
110.649
84.902
65.3913
49.9101
37.2677
26.8138
18.2126
11.3225
6.12106
2.63657
0.805804
0.177427
0.0379685
0.0110528
0.00503
0.00322631
0.00252034
0.0021894
0.00201613
0.00191929
0.00186274
0.00182869
0.00180777
0.0017948
0.00178689
0.00178249
0.00178086
0.00178193
0.00178617
0.00179479
0.00181002
0.00183574
0.0018788
0.00195158
0.00207783
0.00230725
0.00275761
0.0037596
0.0064586
0.0157246
0.0547638
0.230647
0.911259
2.71617
6.03374
10.9132
17.2669
24.9854
33.9955
44.3039
56.0426
69.5316
85.3855
104.717
129.574
163.964
216.677
310.703
526.395
1361.88
1448.03
539.172
304.918
203.498
147.326
111.338
85.9571
66.8166
51.6842
39.3374
29.0879
20.557
13.5596
8.03599
4.00551
1.50496
0.388224
0.0802182
0.019198
0.00698518
0.00385886
0.00277887
0.00231124
0.00207797
0.00195151
0.0018792
0.00183639
0.00181049
0.0017947
0.0017853
0.00178026
0.00177869
0.00178048
0.0017863
0.00179775
0.00181782
0.00185184
0.00190938
0.00200839
0.00218513
0.00252111
0.00322997
0.00499492
0.0105408
0.0326801
0.133194
0.558326
1.84934
4.45957
8.47974
13.8324
20.4097
28.1253
36.9476
46.9306
58.2516
71.2705
86.6338
105.478
129.866
163.81
216.089
309.648
524.679
1358.41
1447.9
538.951
304.801
203.56
147.617
111.895
86.8047
67.9652
53.1254
41.04
30.9934
22.5749
15.5643
9.86748
5.47613
2.43714
0.767465
0.170241
0.0360622
0.0105177
0.00484724
0.00314386
0.00247345
0.00215791
0.00199285
0.00190064
0.00184698
0.00181498
0.00179578
0.00178456
0.00177878
0.00177729
0.00177999
0.00178778
0.0018028
0.00182905
0.00187383
0.00195058
0.00208562
0.00233535
0.00283787
0.00399893
0.00730698
0.0194677
0.0735938
0.31808
1.17865
3.16167
6.43194
10.9282
16.5448
23.189
30.8065
39.4036
49.0714
60.0208
72.6396
87.5961
106.043
130.051
163.635
215.562
308.74
523.222
1355.46
1448.06
538.871
304.759
203.641
147.871
112.358
87.5013
68.9077
54.3126
42.4543
32.5969
24.3063
17.335
11.5599
6.94449
3.5161
1.33761
0.345165
0.0708292
0.0171512
0.00645064
0.0036697
0.00269063
0.00226082
0.00204523
0.00192793
0.00186089
0.00182149
0.00179817
0.00178479
0.00177812
0.00177675
0.0017806
0.00179085
0.00181035
0.00184446
0.00190317
0.00200549
0.00219053
0.0025481
0.00332074
0.00531643
0.0119177
0.0397115
0.169299
0.693459
2.11937
4.72072
8.46859
13.2599
18.9981
25.6154
33.0878
41.4526
50.8294
61.4536
73.7328
88.3506
106.47
130.167
163.457
215.097
307.958
521.981
1352.96
1448.46
538.905
304.778
203.742
148.103
112.754
88.0859
69.694
55.3039
43.6412
33.955
25.7934
18.8884
13.0936
8.34779
4.65424
2.06872
0.641803
0.139807
0.029887
0.00915125
0.0044465
0.00298429
0.00239317
0.00211102
0.00196207
0.00187859
0.00183025
0.00180202
0.00178607
0.00177836
0.00177718
0.00178245
0.00179577
0.00182086
0.00186495
0.00194171
0.00207829
0.00233367
0.00285486
0.00408467
0.00770376
0.0215798
0.0855991
0.373538
1.31897
3.31165
6.39111
10.459
15.4156
21.1842
27.7216
35.03
43.1709
52.2856
62.6274
74.6181
88.952
106.799
130.239
163.286
214.687
307.286
520.922
1350.84
1449.06
539.026
304.848
203.86
148.32
113.101
88.5858
70.3605
56.1424
44.6476
35.1137
27.0754
20.2487
14.4688
9.65463
5.78733
2.9016
1.07419
0.266682
0.0543228
0.0138482
0.00562692
0.0033869
0.00256377
0.00219316
0.00200422
0.00190063
0.00184154
0.00180747
0.0017885
0.00177961
0.00177869
0.00178572
0.00180282
0.0018349
0.00189162
0.00199184
0.00217466
0.00253082
0.00330817
0.00534771
0.0122647
0.0423243
0.185159
0.747577
2.1826
4.65068
8.07142
12.3405
17.3743
23.117
29.5473
36.6886
44.6212
53.5028
63.5999
75.3447
89.439
107.058
130.283
163.127
214.329
306.707
520.019
1349.05
1449.81
539.207
304.955
203.994
148.526
113.412
89.0206
70.9336
56.8604
45.5095
36.11
28.1858
21.4407
15.6958
10.8533
6.87628
3.77829
1.62404
0.475805
0.0999623
0.0221927
0.00747351
0.00394847
0.00278486
0.00229541
0.00205576
0.00192757
0.00185564
0.00181469
0.0017922
0.00178195
0.00178139
0.0017906
0.00181235
0.00185311
0.00192583
0.00205663
0.00230258
0.00280628
0.00399922
0.0075369
0.0213333
0.0864953
0.381303
1.32106
3.21661
6.04519
9.69764
14.0832
19.1365
24.8204
31.132
38.1115
45.854
54.5295
64.4143
75.9485
89.8393
107.265
130.309
162.982
214.016
306.208
519.247
1347.52
1450.68
539.445
305.088
204.138
148.726
113.694
89.4045
71.4327
57.4821
46.255
36.9733
29.153
22.4882
16.7885
11.9433
7.90054
4.65595
2.2532
0.779917
0.180677
0.037104
0.0104399
0.00474755
0.0030737
0.00242262
0.00211837
0.0019601
0.00187286
0.00182384
0.00179727
0.00178549
0.00178543
0.0017973
0.00182475
0.00187628
0.00196927
0.00214019
0.0024735
0.00319875
0.00509168
0.011503
0.0397004
0.176337
0.716583
2.07106
4.34348
7.43143
11.2342
15.6779
20.7138
26.3208
32.5113
39.3386
46.9095
55.4031
65.1036
76.4565
90.1732
107.435
130.325
162.853
213.744
305.779
518.588
1346.24
1451.65
539.731
305.245
204.29
148.919
113.953
89.7478
71.8726
58.026
46.9054
37.7271
30.0004
23.4118
17.7621
12.93
8.85143
5.5074
2.92219
1.17256
0.312273
0.0634025
0.0153037
0.00590889
0.00345508
0.00258113
0.00219404
0.00199897
0.00189353
0.00183508
0.00180382
0.00179033
0.00179093
0.00180606
0.00184047
0.00190533
0.00202405
0.00224799
0.00270425
0.00377183
0.00688719
0.0189367
0.0765706
0.34353
1.20701
2.94267
5.5013
8.76989
12.6645
17.1268
22.1225
27.6443
33.7164
40.403
47.8197
56.1529
65.6925
76.8885
90.4553
107.576
130.334
162.738
213.509
305.41
518.025
1345.16
1452.7
540.056
305.422
204.446
149.105
114.193
90.058
72.2641
58.5063
47.4777
38.39
30.7472
24.2297
18.6311
13.8216
9.72731
6.31738
3.6002
1.632
0.50665
0.10827
0.023369
0.0076321
0.00396501
0.00277931
0.00228524
0.00204504
0.00191801
0.00184861
0.00181197
0.00179658
0.00179806
0.00181714
0.00186002
0.00194136
0.00209286
0.00238758
0.00302028
0.00463294
0.00994967
0.0331111
0.147705
0.618329
1.83219
3.87953
6.64783
10.0385
13.9835
18.4382
23.3806
28.8144
34.7739
41.3316
48.61
56.8015
66.2003
77.2599
90.6969
107.696
130.341
162.638
213.305
305.093
517.546
1344.25
1453.8
540.413
305.618
204.609
149.285
114.418
90.3408
72.6158
58.934
47.9851
38.9768
31.409
24.9571
19.4086
14.6271
10.5305
7.07842
4.26654
2.13172
0.76606
0.180845
0.0367345
0.0102359
0.00465648
0.00302841
0.002395
0.00209932
0.00194668
0.00186459
0.00182184
0.00180435
0.00180696
0.00183082
0.00188398
0.00198573
0.00217919
0.00256953
0.00346097
0.00596755
0.0153328
0.0600182
0.275181
1.01279
2.55088
4.83794
7.75674
11.2265
15.1931
19.6232
24.5053
29.8521
35.706
42.1461
49.3008
57.3668
66.6419
77.5822
90.9062
107.799
130.346
162.552
213.129
304.821
517.138
1343.49
1454.94
540.794
305.828
204.776
149.46
114.627
90.6001
72.9341
59.3178
48.4381
39.4997
31.9989
25.6068
20.1063
15.3555
11.2654
7.78795
4.90859
2.64857
1.08195
0.290257
0.0585656
0.0142241
0.0056079
0.00334364
0.0025271
0.00216297
0.00197998
0.00188323
0.00183353
0.00181376
0.00181782
0.00184742
0.00191304
0.00204008
0.00228758
0.00280891
0.00408869
0.00810031
0.0249694
0.10965
0.481238
1.5139
3.32151
5.78804
8.8129
12.3308
16.299
20.6939
25.5126
30.7755
36.5312
42.8647
49.9085
57.863
67.0289
77.8644
91.0895
107.89
130.351
162.477
212.978
304.588
516.792
1342.86
1456.12
541.194
306.049
204.948
149.631
114.824
90.8388
73.2239
59.6645
48.8452
39.9684
32.5273
26.1897
20.7345
16.0151
11.9373
8.4463
5.51938
3.16561
1.43894
0.442536
0.0932159
0.0203764
0.00693556
0.00374573
0.0026863
0.00223734
0.00201837
0.00190472
0.00184718
0.00182492
0.0018308
0.00186731
0.00194801
0.00210644
0.00242408
0.00312767
0.00500407
0.011601
0.0422626
0.1963
0.777878
2.09258
4.11158
6.71085
9.80868
13.3524
17.3086
21.6621
26.417
31.6
37.2652
43.5018
50.4461
58.3014
67.3706
78.1136
91.2516
107.971
130.358
162.414
212.848
304.389
516.5
1342.35
1457.31
541.608
306.279
205.123
149.799
115.01
91.0594
73.4891
59.9792
49.2131
40.3907
33.0029
26.7148
21.302
16.6139
12.5518
9.05548
6.09563
3.67162
1.82036
0.638159
0.145929
0.0298596
0.00881144
0.00426318
0.00287862
0.00232403
0.00206237
0.00192926
0.00186289
0.00183795
0.00184612
0.00189088
0.00198981
0.00218735
0.00259686
0.00355834
0.00637161
0.0174596
0.0728055
0.335976
1.1605
2.71765
4.8985
7.59503
10.7413
14.2947
18.23
22.5388
27.2312
32.339
37.9209
44.0696
50.9244
58.6911
67.6743
78.3354
91.3964
108.045
130.365
162.361
212.738
304.219
516.255
1341.93
1458.52
542.031
306.515
205.299
149.964
115.188
91.2647
73.7321
60.2665
49.5472
40.7731
33.4331
27.1898
21.8162
17.1585
13.1142
9.61839
6.63633
4.15973
2.21208
0.871815
0.221913
0.0443336
0.0114875
0.00493521
0.00311172
0.00242495
0.00211256
0.00195707
0.00188079
0.00185297
0.00186396
0.00191856
0.00203956
0.00228601
0.00281709
0.00414991
0.00846171
0.0273538
0.124867
0.5407
1.61101
3.36371
5.6675
8.43447
11.611
15.1628
19.0713
23.334
27.9661
33.0037
38.509
44.5779
51.3522
59.0394
67.9459
78.534
91.5267
108.112
130.374
162.317
212.644
304.075
516.05
1341.6
1459.73
542.46
306.755
205.477
150.126
115.357
91.4569
73.9563
60.5293
49.8519
41.1209
33.8237
27.6212
22.2838
17.6552
13.6295
10.1383
7.14193
4.62601
2.60367
1.13436
0.324972
0.0660006
0.0153273
0.00581587
0.0033954
0.00254235
0.00216956
0.00198837
0.00190098
0.00187012
0.00188455
0.00195087
0.00209856
0.00240651
0.00310028
0.004977
0.0117177
0.0440008
0.208828
0.813059
2.1066
4.0125
6.40939
9.22648
12.4198
15.962
19.8402
24.0569
28.6314
33.6036
39.0387
45.0351
51.7365
59.3524
68.1901
78.7131
91.645
108.174
130.385
162.281
212.565
303.954
515.881
1341.34
1460.94
542.892
306.997
205.654
150.284
115.52
91.6376
74.1642
60.7706
50.1308
41.4384
34.1798
28.0142
22.7103
18.1092
14.1026
10.6185
7.61373
5.06856
2.98809
1.41554
0.456306
0.097523
0.0208436
0.00697941
0.00374222
0.00267894
0.0022341
0.00202341
0.0019236
0.0018895
0.00190813
0.00198836
0.00216841
0.00255413
0.00346823
0.00615418
0.0168571
0.0715132
0.334864
1.14516
2.62673
4.65167
7.11881
9.9706
13.1708
16.6979
20.5439
24.7154
29.2354
34.1469
39.5176
45.4479
52.0835
59.635
68.411
78.8756
91.753
108.232
130.397
162.252
212.498
303.852
515.742
1341.15
1462.14
543.325
307.241
205.831
150.44
115.676
91.8082
74.3578
60.9933
50.3865
41.7294
34.5056
28.3736
23.1004
18.5253
14.5375
11.0625
8.05347
5.48671
3.36083
1.70616
0.614096
0.141733
0.0287357
0.00852716
0.00416834
0.00283793
0.00230699
0.00206242
0.00194875
0.00191125
0.00193495
0.00203167
0.00225101
0.00273572
0.00395188
0.00785765
0.0250139
0.115527
0.509514
1.52242
3.15577
5.27321
7.79303
10.6678
13.8676
17.3759
21.1889
25.3166
29.7853
34.6405
39.952
45.8221
52.398
59.8912
68.6115
79.0236
91.8522
108.286
130.411
162.229
212.443
303.767
515.63
1341.01
1463.33
543.756
307.484
206.007
150.592
115.827
91.9697
74.5389
61.1997
50.622
41.9964
34.8046
28.7033
23.4584
18.9076
14.9381
11.4732
8.46315
5.88066
3.71916
1.99903
0.794022
0.201148
0.0399163
0.010596
0.00469446
0.00302321
0.00238912
0.00210567
0.00197655
0.00193549
0.00196527
0.00208154
0.0023487
0.00296034
0.00459551
0.0103573
0.03791
0.182728
0.733114
1.92887
3.6827
5.87213
8.43104
11.3199
14.5141
18.0012
21.781
25.8668
30.2873
35.0903
40.3474
46.1626
52.6841
60.1246
68.7946
79.1593
91.9439
108.338
130.426
162.212
212.398
303.697
515.541
1340.92
1464.51
544.184
307.725
206.18
150.741
115.972
92.123
74.7088
61.3916
50.8397
42.2422
35.0796
29.0064
23.7876
19.2595
15.3078
11.8536
8.84481
6.2511
4.0616
2.28897
0.990396
0.277419
0.0555102
0.0133679
0.00534711
0.00323945
0.00248152
0.00215343
0.00200712
0.00196235
0.00199938
0.0021388
0.00246433
0.00323994
0.00546273
0.0140621
0.0580168
0.279543
0.999728
2.35081
4.20008
6.44557
9.033
11.9292
15.1139
18.5784
22.3256
26.3714
30.7467
35.5013
40.7085
46.4734
52.9453
60.338
68.9622
79.2841
92.029
108.387
130.443
162.2
212.361
303.641
515.472
1340.87
1465.67
544.608
307.964
206.352
150.886
116.111
92.2688
74.8685
61.5706
51.0417
42.4693
35.3329
29.2859
24.0912
19.5843
15.6496
12.2063
9.2005
6.59901
4.38751
2.5725
1.19735
0.370927
0.0768048
0.0170808
0.00616006
0.00349224
0.00258534
0.00220599
0.00204056
0.00199196
0.00203761
0.00220442
0.00260145
0.00359051
0.00664505
0.0195801
0.0886146
0.410361
1.29944
2.77783
4.70299
6.99207
9.59982
12.4982
15.6707
19.1119
22.8273
26.8351
31.1683
35.8781
41.0392
46.758
53.1847
60.5336
69.1164
79.3993
92.1084
108.433
130.46
162.192
212.332
303.596
515.421
1340.85
1466.81
545.025
308.201
206.52
151.027
116.246
92.4076
75.0191
61.7381
51.2295
42.6797
35.5671
29.5439
24.3717
19.8847
15.9661
12.5339
9.53216
6.92558
4.69677
2.84736
1.40966
0.480675
0.105141
0.0220375
0.00717603
0.0037883
0.00270187
0.00226366
0.00207699
0.00202445
0.0020803
0.00227954
0.00276445
0.00403348
0.00827355
0.0277899
0.133611
0.576116
1.62135
3.2026
5.18838
7.51121
10.1328
13.0295
16.1881
19.6058
23.2904
27.2623
31.556
36.2242
41.3429
47.0194
53.4047
60.7137
69.2586
79.5062
92.1827
108.478
130.479
162.188
212.31
303.561
515.385
1340.87
1467.93
545.436
308.433
206.685
151.165
116.375
92.54
75.1614
61.8951
51.4046
42.8752
35.7841
29.7826
24.6314
20.1631
16.2598
12.8385
9.84165
7.23202
4.98966
3.11216
1.62319
0.604496
0.141748
0.0286119
0.00844858
0.00413565
0.00283259
0.00232676
0.00211652
0.00205995
0.00212782
0.00236546
0.00295882
0.00459765
0.0105347
0.0399107
0.197013
0.773992
1.95579
3.62003
5.65441
8.00319
10.6337
13.5258
16.6692
20.0635
23.7186
27.6565
31.9133
36.543
41.6226
47.2602
53.6074
60.8799
69.3903
79.6056
92.2524
108.521
130.498
162.188
212.294
303.535
515.362
1340.91
1469.02
545.84
308.662
206.847
151.299
116.5
92.6664
75.2961
62.0427
51.5684
43.0572
35.9856
30.0039
24.872
20.4214
16.5328
13.1221
10.1307
7.51959
5.26665
3.36612
1.83484
0.739472
0.187559
0.037248
0.010044
0.00454387
0.00297913
0.00239563
0.00215925
0.00209861
0.00218058
0.00246372
0.00319145
0.00532177
0.0136904
0.0575461
0.282128
0.998313
2.29519
4.02675
6.10017
8.46868
11.1041
13.9895
17.117
20.4883
24.1152
28.0211
32.2435
36.8374
41.8808
47.4825
53.7948
61.0338
69.5125
79.6983
92.3181
108.562
130.518
162.19
212.282
303.516
515.351
1340.97
1470.1
546.235
308.886
207.006
151.43
116.621
92.7871
75.4236
62.1816
51.7217
43.2271
36.1732
30.2097
25.0955
20.6614
16.7869
13.3866
10.4009
7.78953
5.52838
3.60889
2.04246
0.882407
0.24306
0.0484499
0.0120436
0.00502431
0.00314336
0.00247064
0.0022053
0.00214056
0.00223905
0.00257614
0.003471
0.00625785
0.018102
0.0826633
0.390765
1.24208
2.63404
4.42054
6.52535
8.90862
11.546
14.423
17.5343
20.8832
24.4831
28.3589
32.5491
37.1098
42.1197
47.6882
53.9684
61.1766
69.6263
79.7851
92.3802
108.602
130.539
162.195
212.275
303.504
515.35
1341.06
1471.15
546.622
309.104
207.16
151.556
116.736
92.9023
75.5445
62.3125
51.8655
43.3859
36.3481
30.4013
25.3035
20.8846
17.0235
13.6335
10.6538
8.04302
5.77555
3.84041
2.24456
1.03023
0.308206
0.0627584
0.0145448
0.00559036
0.00332734
0.00255215
0.00225475
0.00218593
0.00230374
0.00270485
0.0038084
0.0074754
0.0242564
0.117463
0.522757
1.4984
2.96845
4.80006
6.93007
9.32412
11.961
14.8287
17.9235
21.2507
24.825
28.6724
32.8326
37.3624
42.3412
47.8791
54.1296
61.3095
69.7324
79.8665
92.439
108.641
130.56
162.202
212.272
303.498
515.356
1341.15
1472.18
547
309.318
207.31
151.679
116.848
93.0124
75.6592
62.4359
52.0006
43.5345
36.5115
30.5799
25.4973
21.0926
17.244
13.864
10.8906
8.28119
6.00892
4.06082
2.44021
1.18028
0.382384
0.0807119
0.017663
0.00625766
0.00353341
0.00264057
0.00230771
0.00223489
0.00237519
0.00285238
0.00421743
0.00906659
0.0327883
0.164127
0.676006
1.76139
3.29576
5.16457
7.31477
9.7164
12.3509
15.2084
18.287
21.5933
25.1433
28.964
33.0961
37.5971
42.5471
48.0567
54.2797
61.4334
69.8318
79.943
92.4948
108.678
130.582
162.211
212.273
303.496
515.37
1341.26
1473.18
547.369
309.526
207.456
151.797
116.955
93.1174
75.768
62.5525
52.1276
43.6738
36.6644
30.7468
25.6781
21.2867
17.45
14.0795
11.1125
8.50514
6.22926
4.27039
2.62881
1.33041
0.464525
0.102798
0.021531
0.00704436
0.00376413
0.00273631
0.00236427
0.00228758
0.00245405
0.00302174
0.00471547
0.0111526
0.044493
0.224476
0.846976
2.02646
3.61415
5.51377
7.68007
10.0867
12.7175
15.5644
18.6269
21.9131
25.44
29.2356
33.3414
37.8156
42.7388
48.2221
54.4197
61.5493
69.925
80.0153
92.548
108.715
130.604
162.222
212.277
303.5
515.39
1341.38
1474.17
547.729
309.727
207.597
151.911
117.057
93.2174
75.8712
62.6624
52.247
43.8045
36.8074
30.9029
25.8471
21.4681
17.6424
14.2811
11.3204
8.71562
6.43733
4.46949
2.80999
1.47908
0.553264
0.129407
0.0262977
0.00797126
0.00402235
0.00283979
0.00242453
0.00234415
0.00254102
0.00321649
0.00532441
0.0138904
0.0603183
0.299644
1.03142
2.29024
3.92247
5.84767
8.02672
10.4363
13.0623
15.8982
18.9451
22.212
25.717
29.489
33.5702
38.0194
42.9177
48.3766
54.5507
61.6579
70.0126
80.0836
92.5989
108.75
130.626
162.234
212.283
303.507
515.415
1341.5
1475.15
548.079
309.922
207.732
152.02
117.155
93.3124
75.9687
62.7661
52.3593
43.9271
36.9414
31.0489
26.0051
21.6376
17.8224
14.4699
11.5154
8.91349
6.63366
4.65847
2.98374
1.62508
0.647078
0.160784
0.0321255
0.00906193
0.0043112
0.00295148
0.00248856
0.00240478
0.00263691
0.00344091
0.00607172
0.0174809
0.0813258
0.389856
1.22505
2.55036
4.22002
6.16649
8.35555
10.7664
13.3868
16.2117
19.2433
22.4918
25.9761
29.726
33.7841
38.2099
43.085
48.5212
54.6735
61.76
70.0953
80.1484
92.6476
108.785
130.649
162.248
212.292
303.517
515.442
1341.62
1476.11
548.42
310.11
207.862
152.123
117.248
93.4024
76.0608
62.8637
52.4647
44.042
37.0669
31.1855
26.153
21.7963
17.9909
14.6467
11.6984
9.09956
6.81889
4.83771
3.14998
1.76752
0.744424
0.196997
0.0391838
0.0103427
0.00463407
0.00307181
0.00255644
0.00246964
0.00274262
0.0037001
0.00699175
0.0221753
0.108615
0.494384
1.42408
2.80514
4.50645
6.47065
8.66744
11.0783
13.6925
16.5064
19.5232
22.7541
26.2188
29.9478
33.9844
38.3884
43.2418
48.657
54.789
61.8562
70.1736
80.2102
92.6946
108.819
130.673
162.263
212.303
303.53
515.473
1341.74
1477.08
548.752
310.29
207.985
152.222
117.336
93.487
76.1473
62.9552
52.5635
44.1496
37.1843
31.3133
26.2912
21.9447
18.1487
14.8124
11.8701
9.27455
6.99363
5.00757
3.30875
1.90578
0.843856
0.237929
0.0476426
0.0118427
0.00499463
0.00320125
0.00262826
0.00253893
0.0028592
0.00400019
0.00812731
0.0282808
0.14322
0.611682
1.62537
3.05347
4.78168
6.76063
8.96331
11.3731
13.9807
16.7837
19.7863
23.0004
26.4467
30.156
34.1723
38.5559
43.3892
48.7847
54.8978
61.9472
70.2479
80.2693
92.7401
108.853
130.697
162.28
212.316
303.546
515.506
1341.86
1478.05
549.075
310.461
208.101
152.314
117.417
93.566
76.228
63.0406
52.6558
44.2501
37.294
31.4327
26.4205
22.0835
18.2964
14.9677
12.0312
9.43912
7.15844
5.16845
3.46015
2.03945
0.944088
0.28328
0.057662
0.0135931
0.00539675
0.00334026
0.00270408
0.00261286
0.00298785
0.00434857
0.00953145
0.0361631
0.185987
0.739643
1.82655
3.29461
5.04578
7.03703
9.24408
11.652
14.2528
17.045
20.0339
23.2321
26.6609
30.3517
34.3491
38.7136
43.528
48.9052
55.0008
62.0336
70.3189
80.3263
92.7844
108.886
130.721
162.299
212.332
303.564
515.539
1341.96
1479.03
549.389
310.622
208.208
152.398
117.493
93.6389
76.3027
63.1199
52.7414
44.3436
37.3962
31.544
26.5412
22.2133
18.4345
15.1132
12.1824
9.59382
7.31379
5.3207
3.6043
2.16823
1.04403
0.332596
0.0693823
0.0156273
0.00584454
0.0034893
0.00278396
0.00269168
0.00313
0.00475415
0.0112696
0.0462426
0.237472
0.8759
2.02588
3.52816
5.29901
7.3005
9.51067
11.9161
14.5099
17.2917
20.2674
23.4504
26.8627
30.5362
34.5157
38.8624
43.6592
49.0194
55.0986
62.1161
70.3871
80.3814
92.828
108.92
130.747
162.319
212.35
303.584
515.572
1342.05
1480.05
549.695
310.773
208.306
152.475
117.561
93.705
76.3708
63.1926
52.8204
44.43
37.4909
31.6475
26.6535
22.3342
18.5635
15.2493
12.3241
9.73914
7.46012
5.46464
3.74136
2.29194
1.14278
0.385301
0.0829125
0.0179793
0.00634218
0.00364879
0.00286797
0.00277566
0.0032873
0.00522776
0.0134218
0.0589858
0.29787
1.01811
2.22212
3.75391
5.54171
7.55173
9.76401
12.1664
14.7533
17.5248
20.488
23.6567
27.0533
30.7105
34.6733
39.0033
43.7837
49.1279
55.192
62.1952
70.453
80.4353
92.8713
108.954
130.774
162.341
212.37
303.607
515.603
1342.11
1481.12
549.992
310.91
208.392
152.541
117.62
93.7636
76.4318
63.2583
52.8924
44.5093
37.5782
31.7432
26.7577
22.4467
18.6838
15.3764
12.4567
9.87547
7.59779
5.60056
3.87146
2.41044
1.23963
0.440735
0.0983201
0.0206835
0.00689393
0.00381913
0.00295614
0.00286513
0.00346176
0.00578267
0.0160859
0.0748869
0.366997
1.16413
2.41447
3.97187
5.77431
7.79143
10.005
12.4041
14.984
17.7457
20.6968
23.8519
27.2339
30.8757
34.8229
39.1373
43.9024
49.2317
55.2817
62.2716
70.5172
80.4885
92.9148
108.99
130.803
162.366
212.393
303.631
515.631
1342.14
1482.25
550.282
311.033
208.465
152.597