/*--------------------------------*- C++ -*----------------------------------*\
| =========                 |                                                 |
| \\      /  F ield         | OpenFOAM: The Open Source CFD Toolbox           |
|  \\    /   O peration     | Version:  1.7.x                                 |
|   \\  /    A nd           | Web:      www.OpenFOAM.com                      |
|    \\/     M anipulation  |                                                 |
\*---------------------------------------------------------------------------*/
FoamFile
{
    version     2.0;
    format      ascii;
    class       volScalarField;
    location    "1000";
    object      k;
}
// * * * * * * * * * * * * * * * * * * * * * * * * * * * * * * * * * * * * * //

dimensions      [0 2 -2 0 0 0 0];

internalField   nonuniform List<scalar> 
52875
(
0.920718
0.202186
0.0395203
0.00814679
0.00220431
0.00107548
0.000915528
0.000935961
0.000970416
0.000993638
0.00100758
0.00101582
0.0010205
0.00102291
0.0010239
0.00102403
0.00102369
0.0010231
0.00102242
0.00102171
0.00102104
0.00102041
0.00101983
0.00101931
0.00101884
0.00101843
0.00101806
0.00101774
0.00101746
0.00101722
0.00101701
0.00101684
0.00101669
0.00101658
0.00101649
0.00101642
0.00101638
0.00101636
0.00101636
0.00101637
0.0010164
0.00101643
0.00101647
0.00101649
0.00101648
0.00101642
0.00101624
0.00101588
0.00101523
0.00101412
0.0010123
0.00100943
0.00100497
0.000998092
0.000987334
0.000970228
0.000944278
0.000915771
0.0009353
0.00122675
0.00271697
0.00962235
0.0432192
0.208557
0.923816
0.876737
0.354738
0.131411
0.0382351
0.00929056
0.00244258
0.00107529
0.000891122
0.000922422
0.000966108
0.000994367
0.00101102
0.00102086
0.00102658
0.0010297
0.00103114
0.00103152
0.00103127
0.00103067
0.0010299
0.00102907
0.00102825
0.00102747
0.00102676
0.00102612
0.00102555
0.00102504
0.00102461
0.00102423
0.00102391
0.00102363
0.00102341
0.00102323
0.00102309
0.00102298
0.00102291
0.00102288
0.00102287
0.00102288
0.00102291
0.00102295
0.00102298
0.00102298
0.00102292
0.00102275
0.00102239
0.00102173
0.00102062
0.00101884
0.00101607
0.00101185
0.00100552
0.000995915
0.000981033
0.000957551
0.000922483
0.000886143
0.000925365
0.00137548
0.00357596
0.0128197
0.0469112
0.145506
0.367683
0.871054
0.798769
0.481208
0.277701
0.133342
0.0495863
0.0140714
0.00362898
0.00132674
0.000949683
0.000941379
0.000974737
0.000999353
0.00101449
0.00102364
0.00102907
0.00103208
0.00103352
0.00103393
0.00103371
0.00103313
0.00103235
0.00103151
0.00103066
0.00102985
0.00102911
0.00102844
0.00102785
0.00102733
0.00102688
0.0010265
0.00102617
0.0010259
0.00102568
0.00102551
0.00102539
0.0010253
0.00102524
0.00102522
0.00102521
0.00102521
0.00102519
0.00102514
0.00102501
0.00102473
0.00102424
0.00102341
0.00102207
0.00102
0.00101688
0.00101228
0.00100551
0.00099547
0.000980322
0.000957547
0.000927816
0.000918511
0.00108243
0.00206885
0.00637637
0.0221099
0.0664132
0.157774
0.303464
0.49827
0.786968
0.763088
0.55643
0.395617
0.250229
0.133636
0.0563361
0.0178326
0.00471093
0.00157635
0.00101725
0.000966712
0.000986438
0.00100536
0.00101781
0.00102559
0.00103029
0.00103292
0.00103417
0.0010345
0.00103426
0.00103368
0.00103292
0.00103209
0.00103126
0.00103047
0.00102974
0.00102909
0.00102852
0.00102802
0.00102759
0.00102722
0.00102692
0.00102668
0.00102649
0.00102634
0.00102624
0.00102617
0.00102612
0.00102607
0.00102602
0.00102592
0.00102573
0.0010254
0.00102484
0.00102392
0.0010225
0.00102036
0.00101721
0.00101264
0.00100607
0.000996592
0.000982856
0.000963786
0.000945242
0.000976893
0.00130933
0.00298752
0.00976633
0.0313866
0.0815974
0.168083
0.287458
0.427647
0.574036
0.748067
0.747749
0.595136
0.469376
0.34336
0.225574
0.127049
0.0573265
0.0194037
0.00527408
0.00172044
0.00106481
0.000988116
0.000997071
0.00101082
0.00102063
0.00102697
0.00103086
0.00103304
0.00103404
0.00103425
0.00103396
0.00103337
0.00103263
0.00103183
0.00103104
0.00103029
0.00102961
0.001029
0.00102846
0.001028
0.00102761
0.00102728
0.00102702
0.00102681
0.00102665
0.00102653
0.00102643
0.00102635
0.00102625
0.00102612
0.0010259
0.00102553
0.00102494
0.00102401
0.0010226
0.00102051
0.00101748
0.00101317
0.00100709
0.000998583
0.000986834
0.000972234
0.000965693
0.00103853
0.00153817
0.00389125
0.0128232
0.0382637
0.0900597
0.170201
0.272791
0.387605
0.503607
0.611598
0.730353
0.739778
0.614455
0.512547
0.406499
0.300303
0.200697
0.115985
0.0540931
0.0189186
0.00524328
0.00173561
0.00108584
0.00100292
0.00100541
0.00101519
0.00102277
0.00102783
0.00103095
0.00103267
0.00103341
0.00103349
0.00103314
0.00103255
0.00103183
0.00103108
0.00103033
0.00102964
0.00102901
0.00102845
0.00102796
0.00102755
0.00102721
0.00102693
0.0010267
0.00102652
0.00102638
0.00102625
0.00102612
0.00102595
0.00102571
0.00102533
0.00102474
0.00102384
0.00102249
0.00102051
0.0010177
0.00101375
0.0010083
0.00100087
0.000991155
0.00098073
0.000984414
0.00109022
0.00172238
0.00459968
0.0149935
0.0421879
0.0929062
0.166335
0.256383
0.354932
0.454018
0.547097
0.629343
0.720255
0.734749
0.624395
0.538158
0.447684
0.354542
0.26227
0.17611
0.102545
0.0481913
0.0169254
0.00473364
0.00164625
0.00108509
0.00101173
0.00101142
0.00101844
0.00102426
0.00102823
0.00103067
0.00103198
0.00103248
0.00103243
0.00103204
0.00103144
0.00103076
0.00103005
0.00102936
0.00102872
0.00102815
0.00102765
0.00102723
0.00102687
0.00102657
0.00102632
0.00102612
0.00102595
0.00102577
0.00102558
0.00102531
0.00102493
0.00102437
0.00102351
0.00102226
0.00102044
0.00101788
0.00101433
0.00100952
0.00100315
0.000995241
0.000988179
0.000998851
0.00112356
0.00182788
0.00498605
0.0160285
0.0433519
0.0915679
0.158594
0.238795
0.325667
0.413208
0.496587
0.572295
0.637715
0.713284
0.73124
0.629843
0.554061
0.474922
0.392817
0.309473
0.227893
0.152333
0.088093
0.0408364
0.0140552
0.00395129
0.0015011
0.0010721
0.0010163
0.0010155
0.00102069
0.00102517
0.00102825
0.00103012
0.00103107
0.00103136
0.0010312
0.00103077
0.00103018
0.00102953
0.00102887
0.00102825
0.00102768
0.00102717
0.00102673
0.00102636
0.00102604
0.00102578
0.00102555
0.00102533
0.0010251
0.00102482
0.00102444
0.0010239
0.00102311
0.00102196
0.00102032
0.00101802
0.00101487
0.00101066
0.00100523
0.000998815
0.000994131
0.00100811
0.00113561
0.00184119
0.00500639
0.0159373
0.0422303
0.0872402
0.148393
0.220619
0.298572
0.377517
0.453679
0.524309
0.58752
0.641699
0.708
0.728678
0.633093
0.564515
0.49357
0.420077
0.344803
0.269407
0.196502
0.129689
0.073502
0.03294
0.0108866
0.00310847
0.001349
0.00105581
0.00101841
0.00101816
0.00102214
0.00102559
0.00102796
0.00102935
0.00103
0.00103012
0.00102988
0.00102942
0.00102885
0.00102824
0.00102764
0.00102707
0.00102656
0.00102612
0.00102573
0.0010254
0.00102511
0.00102484
0.00102458
0.00102428
0.0010239
0.00102339
0.00102266
0.00102162
0.00102015
0.0010181
0.00101533
0.00101167
0.00100704
0.00100179
0.000998572
0.00101268
0.00112898
0.00177208
0.00469848
0.0148955
0.0393601
0.0808365
0.136651
0.202239
0.273075
0.345262
0.415713
0.482148
0.543005
0.597208
0.643595
0.703809
0.726775
0.635234
0.571801
0.506866
0.43997
0.371365
0.301942
0.233272
0.16769
0.108369
0.0593606
0.025196
0.00788748
0.00236545
0.00122235
0.00104173
0.00101931
0.00101981
0.00102295
0.00102563
0.00102742
0.00102843
0.00102883
0.00102881
0.0010285
0.00102803
0.00102749
0.00102692
0.00102638
0.00102587
0.00102542
0.00102503
0.00102467
0.00102436
0.00102405
0.00102373
0.00102334
0.00102285
0.00102218
0.00102124
0.00101993
0.00101813
0.00101571
0.00101253
0.00100857
0.0010042
0.00100174
0.00101383
0.00110995
0.00164696
0.00415573
0.0131612
0.035249
0.0730388
0.123975
0.183894
0.248846
0.315506
0.381245
0.444105
0.502705
0.556128
0.603705
0.644473
0.700403
0.725362
0.63679
0.577164
0.516736
0.454913
0.391669
0.327447
0.263186
0.200385
0.14119
0.0885038
0.0461067
0.0181474
0.00538259
0.00180487
0.00113309
0.00103174
0.00101968
0.00102076
0.00102329
0.00102536
0.00102669
0.00102739
0.00102759
0.00102746
0.00102711
0.00102665
0.00102613
0.00102561
0.00102512
0.00102467
0.00102426
0.00102389
0.00102354
0.00102318
0.00102279
0.00102231
0.00102169
0.00102084
0.00101969
0.0010181
0.00101599
0.00101323
0.00100982
0.0010061
0.00100396
0.00101306
0.00108575
0.00149834
0.00349546
0.0110209
0.0303526
0.0643654
0.110778
0.165732
0.225671
0.287663
0.349397
0.409132
0.465615
0.517993
0.565704
0.608282
0.644849
0.697596
0.724327
0.63803
0.581307
0.524339
0.466469
0.407514
0.347653
0.287441
0.227838
0.170291
0.116826
0.0702086
0.0341133
0.0122125
0.00353069
0.00143639
0.001078
0.00102554
0.00101983
0.00102122
0.00102327
0.00102485
0.00102582
0.00102626
0.00102631
0.0010261
0.00102573
0.00102528
0.00102479
0.00102432
0.00102387
0.00102345
0.00102306
0.00102267
0.00102226
0.00102179
0.0010212
0.00102044
0.00101941
0.00101802
0.00101618
0.00101378
0.00101084
0.00100761
0.00100554
0.00101158
0.00106228
0.00135493
0.00282994
0.00875462
0.0250791
0.055227
0.0973646
0.147857
0.203407
0.261347
0.319587
0.376539
0.43104
0.482275
0.529698
0.572944
0.611654
0.644977
0.695262
0.723588
0.639093
0.584642
0.530389
0.475649
0.420145
0.3639
0.307224
0.250736
0.195415
0.142677
0.0944976
0.0536222
0.023736
0.00765935
0.00232459
0.00122275
0.00104736
0.001022
0.00101986
0.00102133
0.00102298
0.00102417
0.00102484
0.00102508
0.00102502
0.00102475
0.00102437
0.00102393
0.00102348
0.00102304
0.00102261
0.00102219
0.00102176
0.00102129
0.00102073
0.00102003
0.00101911
0.00101789
0.00101628
0.00101421
0.00101164
0.0010088
0.00100673
0.00101014
0.00104297
0.00123534
0.00224451
0.00660874
0.0197999
0.0459718
0.0839715
0.130351
0.181957
0.236293
0.291417
0.345848
0.398486
0.44854
0.495465
0.538901
0.578595
0.614239
0.64499
0.693309
0.723083
0.640053
0.587423
0.535344
0.483119
0.430422
0.377172
0.323525
0.269877
0.216894
0.165576
0.117339
0.0741768
0.0389392
0.01531
0.00454554
0.00163474
0.00111172
0.00103152
0.00102009
0.00101978
0.00102119
0.00102249
0.00102336
0.00102379
0.00102388
0.00102373
0.00102343
0.00102304
0.00102262
0.00102218
0.00102174
0.00102129
0.00102082
0.00102028
0.00101963
0.0010188
0.00101772
0.00101632
0.00101451
0.00101228
0.00100975
0.00100767
0.00100911
0.00102891
0.00114676
0.00178592
0.00477039
0.014854
0.036919
0.0708073
0.113289
0.161262
0.212316
0.264604
0.316714
0.367589
0.416452
0.462755
0.506124
0.546311
0.583128
0.616294
0.644959
0.691666
0.722766
0.640951
0.589809
0.5395
0.489329
0.438938
0.388182
0.337114
0.28598
0.235237
0.185596
0.138085
0.0941606
0.0559152
0.026435
0.00907071
0.00268669
0.00128633
0.00105865
0.00102369
0.00101904
0.00101959
0.00102084
0.00102185
0.00102245
0.00102269
0.00102266
0.00102245
0.00102212
0.00102173
0.0010213
0.00102085
0.00102038
0.00101985
0.00101924
0.00101848
0.00101753
0.0010163
0.00101472
0.00101277
0.00101052
0.00100845
0.00100854
0.00101961
0.00108743
0.00146289
0.00334498
0.0105361
0.0283837
0.0580758
0.0967563
0.141293
0.189291
0.238944
0.288885
0.338077
0.385752
0.431354
0.474491
0.5149
0.552405
0.586854
0.617978
0.644919
0.690278
0.7226
0.641811
0.591903
0.543059
0.494588
0.446114
0.397449
0.348577
0.299641
0.250952
0.203024
0.156611
0.112791
0.0731078
0.0398687
0.0164489
0.00500377
0.00172768
0.001128
0.00103453
0.00101988
0.00101842
0.00101929
0.00102034
0.00102108
0.00102147
0.00102156
0.00102144
0.00102118
0.00102082
0.00102041
0.00101995
0.00101944
0.00101886
0.00101817
0.00101731
0.00101623
0.00101485
0.00101313
0.00101113
0.00100913
0.00100837
0.00101396
0.00105091
0.00125672
0.00234765
0.00706392
0.020689
0.0459986
0.0808529
0.122053
0.167137
0.214296
0.262174
0.309744
0.356235
0.40108
0.443871
0.484323
0.522246
0.557508
0.589981
0.619398
0.64489
0.689104
0.722556
0.642645
0.593775
0.546159
0.499114
0.45225
0.405354
0.358358
0.311334
0.264494
0.218206
0.173033
0.129786
0.0896201
0.0542435
0.0263286
0.00925371
0.00274252
0.00129623
0.00106104
0.00102376
0.001018
0.00101796
0.00101888
0.00101971
0.00102023
0.00102044
0.00102042
0.00102022
0.0010199
0.0010195
0.00101903
0.00101849
0.00101786
0.00101708
0.00101612
0.00101491
0.00101341
0.00101162
0.00100972
0.00100847
0.0010108
0.00102993
0.00113635
0.00171881
0.00453067
0.014153
0.0348368
0.0657094
0.103573
0.145813
0.190561
0.236446
0.282433
0.327742
0.371789
0.414147
0.454512
0.492672
0.528487
0.561852
0.592653
0.620623
0.644882
0.688107
0.722611
0.64346
0.595474
0.5489
0.503063
0.457566
0.412176
0.366791
0.321433
0.276237
0.231473
0.187562
0.145121
0.105033
0.068581
0.0377588
0.0157056
0.00479279
0.00168254
0.00112164
0.00103353
0.0010189
0.001017
0.00101754
0.00101836
0.00101898
0.00101931
0.00101938
0.00101924
0.00101897
0.00101859
0.00101811
0.00101753
0.00101684
0.00101598
0.00101492
0.0010136
0.00101201
0.00101024
0.00100876
0.00100921
0.00101852
0.00107115
0.00136021
0.00287679
0.00903211
0.0249062
0.0515024
0.0859211
0.125312
0.167682
0.211608
0.256029
0.300148
0.34336
0.385218
0.425394
0.463657
0.499848
0.533857
0.5656
0.594972
0.621702
0.644897
0.687262
0.722745
0.644258
0.597034
0.551352
0.506549
0.462223
0.418127
0.374135
0.330229
0.286492
0.243118
0.200426
0.158892
0.119199
0.0823333
0.0497871
0.0240218
0.00833591
0.00250384
0.00125517
0.00105489
0.00102213
0.00101664
0.00101637
0.00101707
0.00101774
0.00101817
0.00101832
0.00101826
0.00101803
0.00101766
0.00101718
0.00101657
0.00101581
0.00101488
0.00101372
0.00101231
0.00101069
0.00100913
0.00100856
0.00101261
0.00103774
0.00117332
0.0019169
0.00542424
0.0165661
0.0384763
0.0692075
0.105664
0.145635
0.187599
0.23045
0.273359
0.315699
0.356997
0.396903
0.435163
0.471596
0.506081
0.538531
0.568875
0.597012
0.622667
0.644937
0.686544
0.722944
0.645029
0.598476
0.553569
0.509658
0.466344
0.423367
0.380585
0.337951
0.295508
0.253392
0.211847
0.171243
0.132117
0.09524
0.0617534
0.033507
0.0135546
0.00407492
0.00153787
0.00109924
0.00102945
0.00101725
0.0010155
0.00101587
0.00101653
0.00101703
0.00101727
0.00101728
0.00101709
0.00101674
0.00101624
0.0010156
0.00101478
0.00101377
0.00101253
0.00101107
0.00100953
0.00100845
0.00100973
0.00102125
0.0010826
0.0014193
0.00318934
0.0101413
0.0269674
0.0536045
0.0869387
0.124429
0.16439
0.205642
0.24731
0.288735
0.329417
0.36898
0.407148
0.443718
0.47855
0.511547
0.54264
0.571767
0.598827
0.623543
0.645
0.685935
0.723194
0.645774
0.599812
0.555587
0.512456
0.470022
0.428021
0.386297
0.344781
0.303485
0.262504
0.222021
0.182329
0.143853
0.107206
0.0732814
0.0434803
0.0202335
0.00671912
0.00210319
0.00118877
0.00104413
0.00101943
0.00101506
0.00101481
0.00101537
0.0010159
0.00101622
0.00101629
0.00101614
0.00101581
0.0010153
0.00101462
0.00101375
0.00101267
0.00101137
0.00100992
0.00100862
0.00100848
0.00101334
0.00104053
0.00118497
0.00198432
0.00575681
0.017401
0.0393727
0.0692562
0.104109
0.141984
0.181579
0.221956
0.262415
0.302423
0.341577
0.379574
0.416191
0.451267
0.48469
0.516382
0.546285
0.574344
0.600458
0.624346
0.645085
0.685419
0.723484
0.646501
0.601055
0.557434
0.514991
0.47333
0.432185
0.391391
0.350862
0.310587
0.270627
0.23112
0.192298
0.154503
0.118227
0.0841831
0.0534572
0.0278997
0.0106109
0.00314739
0.00136469
0.0010721
0.00102412
0.00101526
0.00101396
0.00101428
0.00101481
0.00101517
0.0010153
0.00101519
0.00101487
0.00101436
0.00101365
0.00101273
0.00101159
0.00101027
0.00100892
0.00100808
0.00100968
0.00102144
0.00108189
0.00141353
0.00318571
0.0101881
0.0268977
0.0528096
0.0847644
0.120413
0.158261
0.197277
0.236707
0.275978
0.314655
0.35241
0.388994
0.424226
0.457976
0.490151
0.52069
0.549544
0.576659
0.601936
0.62509
0.645189
0.684983
0.723805
0.647211
0.602219
0.559133
0.517301
0.476324
0.435936
0.395963
0.356309
0.316945
0.277904
0.23929
0.201287
0.16417
0.128343
0.0943817
0.0631473
0.0360553
0.0156752
0.00489393
0.0016976
0.00112409
0.00103292
0.00101641
0.0010134
0.00101329
0.00101375
0.00101414
0.00101432
0.00101425
0.00101394
0.00101342
0.00101268
0.00101172
0.00101055
0.00100925
0.00100812
0.00100814
0.00101286
0.00103801
0.0011693
0.00190424
0.00547117
0.0166958
0.0379022
0.0665412
0.0997459
0.135715
0.173276
0.211597
0.250059
0.288191
0.325631
0.362108
0.397417
0.431408
0.463974
0.49504
0.524556
0.552477
0.578754
0.603286
0.625785
0.64531
0.684615
0.724152
0.647907
0.603317
0.560702
0.519415
0.479049
0.439333
0.400091
0.361217
0.322667
0.284455
0.246656
0.209415
0.172958
0.137616
0.103863
0.0723953
0.0443176
0.0216317
0.00751312
0.00229474
0.00121897
0.00104853
0.00101896
0.00101323
0.00101244
0.00101274
0.00101314
0.00101334
0.00101331
0.00101302
0.00101249
0.00101172
0.00101073
0.00100955
0.00100835
0.00100763
0.0010091
0.00101941
0.0010709
0.0013513
0.00289166
0.00926503
0.0250002
0.0496726
0.0800995
0.113999
0.149977
0.187093
0.224662
0.26217
0.299222
0.335518
0.370829
0.404985
0.437861
0.469367
0.499443
0.528044
0.555133
0.580661
0.604526
0.626437
0.645445
0.684307
0.724518
0.648587
0.604357
0.562161
0.521357
0.48154
0.442426
0.403837
0.365661
0.327842
0.290377
0.253321
0.216787
0.180961
0.146116
0.112648
0.081128
0.0524392
0.0281276
0.0110433
0.0032933
0.00138828
0.00107542
0.00102363
0.0010136
0.00101177
0.00101181
0.00101216
0.00101239
0.00101237
0.0010121
0.00101156
0.00101078
0.00100977
0.00100862
0.00100761
0.00100757
0.00101148
0.00103186
0.00113551
0.00171946
0.00470232
0.0147365
0.0345311
0.0616578
0.0932121
0.127434
0.163219
0.199795
0.236592
0.273178
0.309218
0.344459
0.378707
0.411818
0.443688
0.474242
0.503429
0.53121
0.557551
0.582406
0.605672
0.627052
0.645593
0.68405
0.724898
0.649254
0.605344
0.563523
0.523152
0.483824
0.445253
0.407251
0.369702
0.332542
0.295755
0.259376
0.223495
0.188265
0.153914
0.120774
0.0893214
0.0602767
0.0348515
0.0153726
0.0048308
0.00168103
0.00112098
0.00103149
0.00101472
0.00101134
0.00101096
0.00101122
0.00101145
0.00101145
0.00101119
0.00101065
0.00100985
0.00100885
0.00100778
0.00100709
0.00100816
0.00101613
0.00105486
0.00126122
0.00242849
0.00766305
0.0217016
0.0447133
0.0735039
0.105732
0.140025
0.175486
0.211473
0.247504
0.283209
0.318305
0.352573
0.385851
0.418014
0.448974
0.478669
0.507053
0.534096
0.559764
0.584011
0.606735
0.627634
0.645751
0.683837
0.725289
0.649904
0.606284
0.5648
0.524816
0.485927
0.447846
0.410376
0.373393
0.336829
0.300656
0.264896
0.229617
0.194946
0.161075
0.128286
0.0969794
0.0677537
0.0415787
0.0202892
0.00699999
0.00216591
0.00119707
0.0010442
0.00101687
0.0010112
0.00101022
0.00101033
0.00101053
0.00101054
0.00101029
0.00100975
0.00100895
0.00100798
0.00100706
0.00100688
0.00100968
0.00102445
0.00109689
0.00150143
0.00369937
0.0119506
0.0297435
0.0551104
0.0849998
0.11759
0.151785
0.186842
0.222218
0.257501
0.292373
0.32659
0.359964
0.392354
0.423654
0.453789
0.482705
0.510364
0.536738
0.561797
0.585494
0.607725
0.628188
0.645917
0.683663
0.725686
0.65054
0.607181
0.566
0.526366
0.487873
0.450233
0.413245
0.376777
0.340752
0.305138
0.269944
0.235221
0.201073
0.167663
0.135232
0.104122
0.0748352
0.0481655
0.0255581
0.00981302
0.00292626
0.00132206
0.00106428
0.00102045
0.00101145
0.00100962
0.00100949
0.00100964
0.00100965
0.0010094
0.00100887
0.00100809
0.00100718
0.00100649
0.00100709
0.0010126
0.00103885
0.00117329
0.00194566
0.00577827
0.0174989
0.0384113
0.0654338
0.0960268
0.128763
0.162747
0.197353
0.232116
0.266678
0.300766
0.334166
0.366717
0.398294
0.428807
0.458192
0.4864
0.5134
0.539167
0.563672
0.586868
0.608651
0.628715
0.646089
0.683521
0.726086
0.651159
0.608038
0.567132
0.527814
0.489679
0.452437
0.415886
0.379887
0.344355
0.309251
0.274574
0.240364
0.206704
0.173734
0.141659
0.110776
0.0815117
0.0545268
0.0309773
0.0131967
0.00404531
0.0015228
0.00109561
0.00102603
0.00101219
0.00100918
0.00100872
0.00100878
0.00100878
0.00100853
0.00100801
0.00100726
0.00100646
0.00100613
0.00100787
0.00101761
0.00106342
0.00131085
0.00272711
0.00884998
0.0240408
0.0473413
0.0755053
0.106525
0.139257
0.172956
0.207087
0.241245
0.27512
0.308472
0.341115
0.372906
0.403738
0.433532
0.462231
0.489794
0.516194
0.541407
0.565407
0.588147
0.609519
0.629217
0.646267
0.683409
0.726488
0.651763
0.608857
0.568201
0.52917
0.49136
0.454479
0.418325
0.382754
0.347674
0.313037
0.278835
0.245097
0.211891
0.179338
0.147613
0.116973
0.0877884
0.0606159
0.0363981
0.0170189
0.00558491
0.00183566
0.00114392
0.00103442
0.00101357
0.00100895
0.00100803
0.00100796
0.00100793
0.00100768
0.00100717
0.00100647
0.00100584
0.00100603
0.00100946
0.00102582
0.00110508
0.00155406
0.00401259
0.0129558
0.0312341
0.0562813
0.0852203
0.11647
0.149095
0.182463
0.216108
0.249679
0.282902
0.315565
0.347505
0.378595
0.408742
0.437876
0.465948
0.492922
0.518773
0.54348
0.567018
0.589339
0.610336
0.629698
0.646448
0.683321
0.72689
0.65235
0.609641
0.569213
0.530444
0.492929
0.456378
0.420585
0.385404
0.350738
0.31653
0.282765
0.249463
0.216681
0.18452
0.153134
0.122747
0.0936795
0.0664107
0.0417222
0.0211283
0.00756695
0.00230518
0.00121754
0.00104675
0.00101578
0.00100895
0.00100743
0.00100719
0.00100711
0.00100686
0.00100637
0.00100575
0.00100535
0.00100626
0.00101217
0.00103898
0.00117542
0.00197131
0.00596521
0.0179766
0.0387693
0.0650688
0.0945213
0.125862
0.158309
0.191316
0.224478
0.257483
0.290089
0.322108
0.353395
0.383839
0.413355
0.441883
0.469379
0.495812
0.52116
0.545403
0.568517
0.590454
0.611105
0.630158
0.646631
0.683255
0.727289
0.652921
0.610393
0.570173
0.531642
0.494398
0.458148
0.422684
0.387859
0.353573
0.319761
0.286399
0.253501
0.221113
0.189321
0.15826
0.128127
0.0992037
0.071904
0.0468884
0.0253862
0.00996657
0.00297911
0.00132814
0.00106462
0.00101906
0.00100924
0.00100694
0.00100646
0.00100631
0.00100606
0.0010056
0.00100509
0.00100502
0.00100694
0.00101646
0.00105987
0.00129321
0.00265687
0.00869028
0.0236879
0.046414
0.0736037
0.103381
0.134713
0.166934
0.199566
0.232252
0.264715
0.29674
0.328157
0.358838
0.388683
0.417618
0.445588
0.472554
0.49849
0.523376
0.547192
0.569916
0.591499
0.611832
0.630599
0.646816
0.683208
0.727684
0.653475
0.611113
0.571084
0.532773
0.495775
0.4598
0.424639
0.39014
0.356202
0.322755
0.289768
0.257244
0.225222
0.193777
0.163027
0.133146
0.104382
0.0770987
0.051861
0.029683
0.0127194
0.00390029
0.00149127
0.00109024
0.00102373
0.00100989
0.00100657
0.00100579
0.00100555
0.00100528
0.00100488
0.00100452
0.00100489
0.0010082
0.00102303
0.00109285
0.0014876
0.00372248
0.0121949
0.0298411
0.0540094
0.0818267
0.111793
0.143045
0.175007
0.207259
0.239483
0.27143
0.302906
0.333762
0.363879
0.393169
0.421566
0.449021
0.4755
0.500977
0.525437
0.548861
0.571224
0.592481
0.612519
0.631022
0.647001
0.683177
0.728074
0.654013
0.611803
0.57195
0.53384
0.49707
0.461348
0.426463
0.392265
0.358646
0.325535
0.292895
0.260719
0.229039
0.19792
0.167466
0.137831
0.109237
0.0820031
0.0566212
0.0339404
0.0157385
0.00509761
0.00172647
0.00112665
0.00103021
0.00101096
0.00100634
0.00100517
0.00100483
0.00100455
0.0010042
0.00100404
0.00100499
0.00101022
0.00103287
0.00114472
0.00180105
0.0052755
0.0163864
0.0362207
0.0614529
0.0897061
0.11976
0.150881
0.182566
0.214439
0.246216
0.277672
0.308634
0.338964
0.368557
0.397333
0.425232
0.452211
0.478238
0.503293
0.527359
0.550419
0.57245
0.593405
0.61317
0.631428
0.647187
0.68316
0.728458
0.654535
0.612466
0.572775
0.53485
0.498289
0.462799
0.428169
0.394247
0.360923
0.328122
0.295802
0.263952
0.232591
0.201778
0.171605
0.142209
0.113789
0.0866291
0.0611606
0.0381063
0.0189319
0.00657932
0.00205642
0.00117787
0.00103904
0.00101254
0.00100627
0.00100463
0.00100414
0.00100384
0.00100358
0.00100367
0.00100539
0.00101325
0.00104747
0.00122582
0.00229039
0.00738961
0.0211068
0.0426649
0.0686799
0.0972274
0.127296
0.158251
0.189646
0.221147
0.252494
0.283486
0.313963
0.343802
0.372907
0.401205
0.428642
0.45518
0.48079
0.505453
0.529154
0.551878
0.573601
0.594275
0.613787
0.631817
0.647371
0.683155
0.728835
0.65504
0.613102
0.57356
0.535806
0.499437
0.464162
0.429768
0.396101
0.363048
0.330534
0.298511
0.266963
0.235903
0.205377
0.175469
0.146304
0.118059
0.0909903
0.0654785
0.0421476
0.0222171
0.00833115
0.00250498
0.00124918
0.00105093
0.00101475
0.00100638
0.00100416
0.0010035
0.00100318
0.00100302
0.00100343
0.00100615
0.00101763
0.00106901
0.00135137
0.00302348
0.0100817
0.0261805
0.0490621
0.0756517
0.104388
0.134417
0.165182
0.196284
0.22742
0.258356
0.288908
0.31893
0.348309
0.376959
0.404812
0.431821
0.457949
0.483171
0.507472
0.530835
0.553247
0.574684
0.595097
0.614373
0.632191
0.647553
0.68316
0.729206
0.65553
0.613711
0.574308
0.536712
0.500522
0.465445
0.431269
0.397837
0.365036
0.332786
0.301039
0.269772
0.238993
0.208738
0.179082
0.150138
0.122068
0.095101
0.0695784
0.0460445
0.0255271
0.0103193
0.00309424
0.0013472
0.00106679
0.00101771
0.00100669
0.00100377
0.0010029
0.00100256
0.00100252
0.00100335
0.00100737
0.00102384
0.00110063
0.00154287
0.00406993
0.0133068
0.0314499
0.0553379
0.082347
0.111193
0.141142
0.171701
0.202509
0.233293
0.263837
0.293972
0.323566
0.352515
0.380739
0.408179
0.434788
0.460536
0.485399
0.509361
0.532411
0.554533
0.575703
0.595874
0.614931
0.632551
0.647734
0.683174
0.729569
0.656004
0.614297
0.575022
0.537572
0.501547
0.466654
0.432679
0.399465
0.366897
0.334894
0.303402
0.272397
0.24188
0.211881
0.182464
0.153732
0.125833
0.098976
0.0734668
0.0497862
0.028812
0.0124973
0.00384129
0.00147994
0.00108775
0.00102159
0.00100724
0.00100347
0.00100235
0.00100199
0.0010021
0.00100344
0.00100915
0.00103252
0.00114689
0.00182892
0.00548736
0.0169721
0.0367916
0.0614446
0.0887562
0.117653
0.147492
0.177835
0.208353
0.238796
0.268966
0.298708
0.3279
0.356446
0.384273
0.411326
0.437564
0.462957
0.487485
0.511133
0.53389
0.555742
0.576665
0.59661
0.615461
0.632896
0.647912
0.683196
0.729924
0.656462
0.614859
0.575702
0.538388
0.502517
0.467794
0.434006
0.400995
0.368644
0.336869
0.305615
0.274853
0.244581
0.214823
0.185634
0.157105
0.129373
0.10263
0.0771517
0.0533679
0.032037
0.0148131
0.00475564
0.00165663
0.00111524
0.00102657
0.00100806
0.00100326
0.00100186
0.00100147
0.00100177
0.00100375
0.00101164
0.00104453
0.00121414
0.00224485
0.00730775
0.0209616
0.0421167
0.0673523
0.0948775
0.123779
0.153489
0.18361
0.213844
0.243958
0.273773
0.303143
0.331956
0.360125
0.387581
0.414273
0.440163
0.465226
0.489441
0.512797
0.535282
0.556881
0.577573
0.597306
0.615966
0.633228
0.648087
0.683223
0.730271
0.656905
0.615397
0.576352
0.539164
0.503436
0.468871
0.435257
0.402434
0.370284
0.338722
0.30769
0.277155
0.247112
0.21758
0.188606
0.160272
0.132703
0.106075
0.0806424
0.0567888
0.0351786
0.017216
0.00583756
0.00188731
0.00115101
0.00103289
0.00100919
0.00100316
0.00100142
0.00100101
0.00100153
0.0010043
0.00101502
0.00106109
0.0013111
0.00283032
0.00952941
0.0251599
0.0473639
0.0730438
0.100714
0.129586
0.159152
0.18905
0.219006
0.248806
0.278283
0.307302
0.335759
0.363573
0.390681
0.417035
0.442602
0.467355
0.49128
0.514362
0.536592
0.557956
0.578431
0.597967
0.616448
0.633548
0.648259
0.683256
0.730612
0.657333
0.615914
0.576971
0.539902
0.504306
0.469889
0.436436
0.403788
0.371826
0.340462
0.309637
0.279315
0.249486
0.220166
0.191395
0.163249
0.135839
0.109327
0.0839483
0.060051
0.0382217
0.0196616
0.00707759
0.0021821
0.00119716
0.00104081
0.00101065
0.00100316
0.00100104
0.0010006
0.0010014
0.00100514
0.00101953
0.00108379
0.0014493
0.00362468
0.0121175
0.0294674
0.0524925
0.0785106
0.106274
0.13509
0.164501
0.194177
0.223864
0.253363
0.282519
0.311206
0.339329
0.36681
0.393591
0.419629
0.444892
0.469357
0.493009
0.515835
0.537827
0.558971
0.579244
0.598595
0.616907
0.633855
0.648427
0.683293
0.730945
0.657746
0.61641
0.577563
0.540603
0.505131
0.470851
0.437549
0.405065
0.373278
0.342099
0.311467
0.281343
0.251716
0.222595
0.194016
0.166047
0.138791
0.112397
0.0870794
0.0631583
0.0411574
0.0221134
0.00845827
0.00255031
0.00125613
0.00105067
0.00101251
0.00100329
0.00100072
0.00100026
0.00100139
0.00100632
0.00102545
0.0011148
0.00164335
0.00466096
0.0150122
0.0338063
0.0574759
0.0837501
0.111565
0.140305
0.169557
0.199013
0.22844
0.257651
0.286502
0.314876
0.342683
0.369851
0.396326
0.422068
0.447047
0.471241
0.494637
0.517224
0.538993
0.559931
0.580014
0.599191
0.617346
0.63415
0.648591
0.683333
0.731272
0.658144
0.616884
0.578126
0.541269
0.505912
0.471761
0.438601
0.406269
0.374645
0.343639
0.313187
0.28325
0.253811
0.224877
0.19648
0.168681
0.141573
0.115295
0.0900451
0.066116
0.04398
0.0245448
0.00995678
0.00299947
0.00133074
0.00106283
0.00101481
0.00100355
0.00100046
0.000999978
0.0010015
0.00100791
0.00103318
0.00115695
0.00191082
0.00595995
0.0181408
0.0381199
0.0622976
0.0887638
0.116598
0.145249
0.174337
0.203578
0.232753
0.26169
0.290252
0.31833
0.345839
0.372713
0.3989
0.424364
0.449076
0.473017
0.496173
0.518536
0.540096
0.56084
0.580744
0.599759
0.617765
0.634434
0.64875
0.683374
0.731595
0.658527
0.617338
0.578663
0.541902
0.506653
0.472622
0.439593
0.407404
0.375934
0.345089
0.314807
0.285044
0.255783
0.227025
0.198799
0.17116
0.144195
0.118031
0.0928525
0.0689289
0.0466888
0.026935
0.0115473
0.00353458
0.00142407
0.00107773
0.00101761
0.00100394
0.00100028
0.000999771
0.00100177
0.00100997
0.0010432
0.00121392
0.00227148
0.00752641
0.0214295
0.0423685
0.0669483
0.0935561
0.121385
0.149936
0.178859
0.207889
0.236823
0.265498
0.293785
0.321583
0.348812
0.375409
0.401326
0.426528
0.450989
0.474692
0.497624
0.519776
0.541139
0.561701
0.581438
0.600299
0.618165
0.634707
0.648905
0.683416
0.731914
0.658896
0.61777
0.579174
0.542502
0.507355
0.473436
0.440531
0.408476
0.377148
0.346456
0.316332
0.286733
0.257638
0.229046
0.200982
0.173496
0.146667
0.120615
0.0955101
0.0716022
0.0492832
0.0292688
0.0132033
0.00415741
0.00153941
0.00109587
0.00102097
0.00100449
0.00100016
0.000999638
0.00100219
0.0010126
0.00105612
0.00129035
0.00274589
0.00934813
0.0248119
0.0465251
0.071424
0.0981332
0.125937
0.154381
0.183139
0.211965
0.240667
0.269092
0.297119
0.324652
0.351616
0.377951
0.403614
0.42857
0.452796
0.476275
0.498995
0.520949
0.542127
0.562518
0.582097
0.600814
0.618549
0.634969
0.649057
0.683457
0.732232
0.65925
0.618182
0.579658
0.54307
0.508018
0.474205
0.441416
0.409486
0.378293
0.347743
0.317768
0.288323
0.259384
0.230949
0.203039
0.175697
0.148999
0.123055
0.0980257
0.0741417
0.0517639
0.0315357
0.0148997
0.00486636
0.00168011