/*--------------------------------*- C++ -*----------------------------------*\
| =========                 |                                                 |
| \\      /  F ield         | OpenFOAM: The Open Source CFD Toolbox           |
|  \\    /   O peration     | Version:  1.7.x                                 |
|   \\  /    A nd           | Web:      www.OpenFOAM.com                      |
|    \\/     M anipulation  |                                                 |
\*---------------------------------------------------------------------------*/
FoamFile
{
    version     2.0;
    format      ascii;
    class       volScalarField;
    location    "1000";
    object      nut;
}
// * * * * * * * * * * * * * * * * * * * * * * * * * * * * * * * * * * * * * //

dimensions      [0 2 -1 0 0 0 0];

internalField   nonuniform List<scalar> 
52875
(
3.43946e-05
1.16735e-05
3.27123e-06
9.41626e-07
3.87511e-07
3.88959e-07
9.3344e-07
2.8632e-06
7.95568e-06
1.70712e-05
2.74318e-05
3.57381e-05
4.11667e-05
4.43566e-05
4.61337e-05
4.70993e-05
4.76203e-05
4.79038e-05
4.80619e-05
4.81543e-05
4.82119e-05
4.82509e-05
4.82794e-05
4.83018e-05
4.83205e-05
4.83364e-05
4.835e-05
4.83618e-05
4.83721e-05
4.8381e-05
4.83886e-05
4.8395e-05
4.84003e-05
4.84045e-05
4.84077e-05
4.84099e-05
4.8411e-05
4.8411e-05
4.84095e-05
4.84059e-05
4.83993e-05
4.83876e-05
4.83671e-05
4.8331e-05
4.82668e-05
4.81522e-05
4.7947e-05
4.75797e-05
4.69257e-05
4.57727e-05
4.37755e-05
4.04231e-05
3.51028e-05
2.74674e-05
1.82682e-05
9.83558e-06
4.32702e-06
1.67459e-06
6.55076e-07
3.64626e-07
4.50006e-07
1.09458e-06
3.55106e-06
1.19618e-05
3.42016e-05
3.35631e-05
2.5782e-05
1.52829e-05
6.26244e-06
1.96633e-06
6.92687e-07
5.43671e-07
1.17488e-06
3.42905e-06
8.74168e-06
1.71745e-05
2.64056e-05
3.41232e-05
3.95962e-05
4.31217e-05
4.52673e-05
4.65301e-05
4.72605e-05
4.76811e-05
4.79258e-05
4.80717e-05
4.81626e-05
4.82225e-05
4.82648e-05
4.82964e-05
4.83213e-05
4.83416e-05
4.83585e-05
4.83728e-05
4.83848e-05
4.83948e-05
4.8403e-05
4.84095e-05
4.84143e-05
4.84175e-05
4.84189e-05
4.84182e-05
4.84149e-05
4.84077e-05
4.83945e-05
4.83716e-05
4.83321e-05
4.82643e-05
4.81479e-05
4.79483e-05
4.76073e-05
4.70297e-05
4.60636e-05
4.44771e-05
4.19417e-05
3.8051e-05
3.24411e-05
2.51028e-05
1.68543e-05
9.42289e-06
4.35614e-06
1.76553e-06
7.58352e-07
5.54167e-07
9.66462e-07
2.70611e-06
7.68373e-06
1.68676e-05
2.66968e-05
3.32106e-05
3.20359e-05
3.90231e-05
3.49964e-05
2.36853e-05
1.17681e-05
4.18184e-06
1.36227e-06
8.01992e-07
1.43946e-06
4.06285e-06
9.94289e-06
1.84533e-05
2.71918e-05
3.43679e-05
3.95274e-05
4.29534e-05
4.51184e-05
4.64442e-05
4.72409e-05
4.77159e-05
4.79998e-05
4.81721e-05
4.82798e-05
4.83501e-05
4.83983e-05
4.84332e-05
4.84598e-05
4.84808e-05
4.84978e-05
4.85118e-05
4.85232e-05
4.85323e-05
4.85393e-05
4.85441e-05
4.85467e-05
4.85464e-05
4.85426e-05
4.85334e-05
4.8516e-05
4.84852e-05
4.84323e-05
4.83426e-05
4.81917e-05
4.79397e-05
4.75225e-05
4.68402e-05
4.57412e-05
4.40075e-05
4.13483e-05
3.74264e-05
3.19611e-05
2.49629e-05
1.70841e-05
9.76823e-06
4.56223e-06
1.8712e-06
9.25147e-07
9.849e-07
2.27648e-06
6.47116e-06
1.54528e-05
2.75682e-05
3.8e-05
4.04891e-05
3.1567e-05
3.13122e-05
4.80776e-05
5.20955e-05
4.46503e-05
3.10715e-05
1.6689e-05
6.46063e-06
2.10257e-06
1.0824e-06
1.71541e-06
4.7097e-06
1.12078e-05
1.99704e-05
2.84501e-05
3.52003e-05
4.00137e-05
4.32296e-05
4.52919e-05
4.65793e-05
4.73694e-05
4.78501e-05
4.81426e-05
4.83224e-05
4.84353e-05
4.85084e-05
4.85577e-05
4.85926e-05
4.86185e-05
4.86383e-05
4.86538e-05
4.8666e-05
4.86753e-05
4.86819e-05
4.86858e-05
4.86863e-05
4.86823e-05
4.8672e-05
4.86519e-05
4.86161e-05
4.8555e-05
4.84524e-05
4.82827e-05
4.80046e-05
4.75542e-05
4.68341e-05
4.57007e-05
4.39523e-05
4.13237e-05
3.75068e-05
3.22293e-05
2.54431e-05
1.76493e-05
1.0174e-05
4.72336e-06
1.964e-06
1.13657e-06
1.58297e-06
4.09284e-06
1.10189e-05
2.33276e-05
3.8021e-05
5.05797e-05
5.61864e-05
4.991e-05
3.07769e-05
3.0996e-05
5.37054e-05
6.46606e-05
6.2886e-05
5.21352e-05
3.64711e-05
2.02301e-05
8.19061e-06
2.7041e-06
1.34238e-06
2.04579e-06
5.50156e-06
1.26466e-05
2.16542e-05
2.9911e-05
3.62722e-05
4.07374e-05
4.37084e-05
4.56199e-05
4.68228e-05
4.7569e-05
4.80285e-05
4.83111e-05
4.84864e-05
4.85965e-05
4.86675e-05
4.8715e-05
4.8748e-05
4.87718e-05
4.87893e-05
4.88024e-05
4.88117e-05
4.88174e-05
4.88191e-05
4.88159e-05
4.88056e-05
4.87846e-05
4.87468e-05
4.86823e-05
4.85749e-05
4.83991e-05
4.81149e-05
4.76609e-05
4.6945e-05
4.58328e-05
4.41361e-05
4.16049e-05
3.79397e-05
3.28491e-05
2.621e-05
1.8394e-05
1.06676e-05
4.93294e-06
2.09352e-06
1.37985e-06
2.25942e-06
6.06904e-06
1.54296e-05
3.02944e-05
4.70575e-05
6.16697e-05
7.03943e-05
6.95553e-05
5.57607e-05
3.04103e-05
3.08303e-05
5.71476e-05
7.34725e-05
7.71475e-05
7.07084e-05
5.719e-05
3.97752e-05
2.22023e-05
9.11532e-06
3.05136e-06
1.5653e-06
2.47938e-06
6.57038e-06
1.44008e-05
2.35627e-05
3.15309e-05
3.7478e-05
4.15798e-05
4.42863e-05
4.6024e-05
4.71198e-05
4.78028e-05
4.8226e-05
4.8488e-05
4.86508e-05
4.87533e-05
4.88193e-05
4.8863e-05
4.88928e-05
4.89134e-05
4.89276e-05
4.89367e-05
4.89408e-05
4.89393e-05
4.89301e-05
4.89099e-05
4.88727e-05
4.88089e-05
4.87028e-05
4.85303e-05
4.82535e-05
4.78148e-05
4.71285e-05
4.60691e-05
4.44591e-05
4.20593e-05
3.85706e-05
3.36758e-05
2.71773e-05
1.93257e-05
1.13253e-05
5.25626e-06
2.2736e-06
1.62994e-06
2.91175e-06
7.88099e-06
1.91699e-05
3.59583e-05
5.43945e-05
7.0835e-05
8.22585e-05
8.58773e-05
7.89632e-05
5.93402e-05
3.01993e-05
3.07253e-05
5.93128e-05
7.96493e-05
8.79559e-05
8.58828e-05
7.57343e-05
5.99167e-05
4.10726e-05
2.26318e-05
9.19537e-06
3.12104e-06
1.76659e-06
3.0903e-06
8.04029e-06
1.65549e-05
2.57185e-05
3.32853e-05
3.87658e-05
4.2481e-05
4.49092e-05
4.64611e-05
4.74388e-05
4.8049e-05
4.84282e-05
4.86631e-05
4.88094e-05
4.89016e-05
4.89607e-05
4.89992e-05
4.90244e-05
4.90404e-05
4.90492e-05
4.90509e-05
4.90444e-05
4.90266e-05
4.89921e-05
4.89319e-05
4.88317e-05
4.86687e-05
4.84082e-05
4.7997e-05
4.73557e-05
4.63677e-05
4.48659e-05
4.262e-05
3.93311e-05
3.46589e-05
2.83371e-05
2.04933e-05
1.22293e-05
5.75074e-06
2.51525e-06
1.86156e-06
3.4361e-06
9.26886e-06
2.1938e-05
4.01519e-05
5.99669e-05
7.80307e-05
9.17916e-05
9.90391e-05
9.76504e-05
8.55943e-05
6.15943e-05
3.00528e-05
3.06519e-05
6.07394e-05
8.40641e-05
9.61379e-05
9.79841e-05
9.13807e-05
7.82215e-05
6.04894e-05
4.05208e-05
2.16662e-05
8.54404e-06
2.9728e-06
1.99952e-06
3.99295e-06
1.00244e-05
1.91266e-05
2.80905e-05
3.51314e-05
4.00917e-05
4.34007e-05
4.55428e-05
4.69047e-05
4.77606e-05
4.82946e-05
4.86258e-05
4.88311e-05
4.89591e-05
4.90395e-05
4.90902e-05
4.91219e-05
4.91406e-05
4.91489e-05
4.91473e-05
4.91337e-05
4.91039e-05
4.90498e-05
4.89584e-05
4.88092e-05
4.85706e-05
4.81942e-05
4.76073e-05
4.67023e-05
4.53228e-05
4.32487e-05
4.0185e-05
3.57749e-05
2.96928e-05
2.19375e-05
1.34501e-05
6.47606e-06
2.83864e-06
2.0601e-06
3.75837e-06
1.00747e-05
2.35909e-05
4.28237e-05
6.37872e-05
8.33019e-05
9.91171e-05
0.000109399
0.000112452
0.000106613
9.03657e-05
6.30809e-05
2.99413e-05
3.05981e-05
6.17293e-05
8.73073e-05
0.000102406
0.000107611
0.000104318
9.40608e-05
7.84144e-05
5.9097e-05
3.83153e-05
1.95433e-05
7.37908e-06
2.72189e-06
2.35906e-06
5.34639e-06
1.25992e-05
2.2066e-05
3.06057e-05
3.70106e-05
4.14118e-05
4.43056e-05
4.61625e-05
4.73368e-05
4.80727e-05
4.85299e-05
4.88131e-05
4.89887e-05
4.90976e-05
4.91649e-05
4.92056e-05
4.92279e-05
4.92357e-05
4.92295e-05
4.92066e-05
4.91605e-05
4.90802e-05
4.89475e-05
4.87341e-05
4.83967e-05
4.78695e-05
4.70542e-05
4.58063e-05
4.39182e-05
4.11035e-05
3.69988e-05
3.1231e-05
2.36698e-05
1.50368e-05
7.49946e-06
3.28132e-06
2.23077e-06
3.85392e-06
1.0246e-05
2.40974e-05
4.39888e-05
6.59022e-05
8.67179e-05
0.000104363
0.000117249
0.000123971
0.000123172
0.000113525
9.38953e-05
6.41115e-05
2.98526e-05
3.05581e-05
6.24509e-05
8.97605e-05
0.000107292
0.000115327
0.000114979
0.000107521
9.4254e-05
7.65328e-05
5.59328e-05
3.46891e-05
1.65836e-05
5.97684e-06
2.50712e-06
2.99169e-06
7.33519e-06
1.57662e-05
2.52644e-05
3.31674e-05
3.88582e-05
4.26844e-05
4.51684e-05
4.67499e-05
4.77451e-05
4.83649e-05
4.87491e-05
4.89866e-05
4.9133e-05
4.92222e-05
4.92748e-05
4.9302e-05
4.93093e-05
4.92971e-05
4.92618e-05
4.91945e-05
4.908e-05
4.88936e-05
4.85971e-05
4.81318e-05
4.74093e-05
4.62978e-05
4.46049e-05
4.20583e-05
3.8298e-05
3.29187e-05
2.56699e-05
1.70134e-05
8.89695e-06
3.90587e-06
2.40294e-06
3.74938e-06
9.82114e-06
2.3507e-05
4.37037e-05
6.63751e-05
8.83529e-05
0.000107642
0.000122809
0.000132646
0.00013602
0.000131815
0.000118952
9.65825e-05
6.48598e-05
2.97802e-05
3.05284e-05
6.30003e-05
9.16686e-05
0.000111172
0.000121581
0.000123801
0.00011891
0.000108012
9.22276e-05
7.2778e-05
5.12009e-05
2.99304e-05
1.3185e-05
4.62212e-06
2.47352e-06
4.1103e-06
1.01103e-05
1.9426e-05
2.85753e-05
3.56756e-05
4.06148e-05
4.38747e-05
4.59681e-05
4.72919e-05
4.81187e-05
4.86318e-05
4.89486e-05
4.91431e-05
4.92607e-05
4.93287e-05
4.93624e-05
4.93689e-05
4.93491e-05
4.92978e-05
4.92033e-05
4.90449e-05
4.87896e-05
4.83862e-05
4.77564e-05
4.6782e-05
4.52878e-05
4.30207e-05
3.96338e-05
3.47065e-05
2.7889e-05
1.93716e-05
1.07438e-05
4.80517e-06
2.63161e-06
3.51305e-06
8.91253e-06
2.19358e-05
4.20575e-05
6.52797e-05
8.82811e-05
0.000109055
0.00012625
0.000138791
0.000145703
0.000146041
0.000138866
0.000123293
9.86839e-05
6.54255e-05
2.97205e-05
3.05066e-05
6.34343e-05
9.31907e-05
0.000114311
0.000126718
0.00013116
0.000128568
0.000119898
0.000106111
8.82071e-05
6.73434e-05
4.51333e-05
2.44126e-05
9.79662e-06
3.55575e-06
2.78752e-06
5.98613e-06
1.37008e-05
2.33885e-05
3.1844e-05
3.80422e-05
4.22335e-05
4.49576e-05
4.66909e-05
4.77773e-05
4.84525e-05
4.88696e-05
4.91251e-05
4.92786e-05
4.93662e-05
4.94082e-05
4.94139e-05
4.93844e-05
4.93128e-05
4.91836e-05
4.89693e-05
4.86264e-05
4.80866e-05
4.7246e-05
4.59483e-05
4.39632e-05
4.09656e-05
3.65365e-05
3.02559e-05
2.20642e-05
1.30936e-05
6.10208e-06
3.00014e-06
3.23955e-06
7.68783e-06
1.95624e-05
3.91733e-05
6.27014e-05
8.65771e-05
0.000108688
0.000127706
0.000142634
0.00015261
0.000156816
0.000154445
0.000144696
0.000126828
0.000100367
6.5868e-05
2.96707e-05
3.04911e-05
6.37881e-05
9.44324e-05
0.000116895
0.000130991
0.000137354
0.0001368
0.000130174
0.000118315
0.000102078
8.23936e-05
6.04302e-05
3.80193e-05
1.86245e-05
6.85433e-06
2.94489e-06
3.68561e-06
8.86688e-06
1.79554e-05
2.74199e-05
3.49345e-05
4.02016e-05
4.36837e-05
4.59185e-05
4.73255e-05
4.8202e-05
4.87438e-05
4.90753e-05
4.92738e-05
4.9386e-05
4.94384e-05
4.94431e-05
4.94014e-05
4.93044e-05
4.91314e-05
4.88468e-05
4.83927e-05
4.76798e-05
4.6571e-05
4.48616e-05
4.22547e-05
3.83489e-05
3.26864e-05
2.50054e-05
1.59511e-05
7.93507e-06
3.62764e-06
3.03516e-06
6.34698e-06
1.6627e-05
3.5217e-05
5.87422e-05
8.33178e-05
0.000106622
0.000127286
0.000144349
0.000157023
0.000164586
0.000166333
0.000161562
0.000149578
0.000129755
0.000101744
6.62243e-05
2.9629e-05
3.04804e-05
6.4084e-05
9.54654e-05
0.000119055
0.000134591
0.000142619
0.000143865
0.000139087
0.000129033
0.000114453
9.61305e-05
7.49796e-05
5.22697e-05
3.02536e-05
1.31619e-05
4.68506e-06
2.91898e-06
5.50261e-06
1.28167e-05
2.25714e-05
3.12982e-05
3.77464e-05
4.21138e-05
4.49504e-05
4.67471e-05
4.78699e-05
4.85649e-05
4.89899e-05
4.92439e-05
4.93866e-05
4.94517e-05
4.94551e-05
4.93983e-05
4.92695e-05
4.9042e-05
4.8669e-05
4.80753e-05
4.71439e-05
4.56964e-05
4.34687e-05
4.00892e-05
3.50935e-05
2.80805e-05
1.92517e-05
1.04214e-05
4.67795e-06
3.01232e-06
5.09264e-06
1.34267e-05
3.04132e-05
5.353e-05
7.85881e-05
0.000102933
0.000125083
0.000144073
0.000159156
0.000169677
0.000175011
0.000174542
0.000167647
0.000153715
0.000132214
0.000102891
6.65183e-05
2.95939e-05
3.04737e-05
6.4337e-05
9.63394e-05
0.000120887
0.000137659
0.000147135
0.000149972
0.000146856
0.000138465
0.000125468
0.000108551
8.84665e-05
6.61685e-05
4.31608e-05
2.23963e-05
8.628e-06
3.43772e-06
3.68245e-06
8.56814e-06
1.76047e-05
2.71978e-05
3.48539e-05
4.02205e-05
4.37631e-05
4.60256e-05
4.74454e-05
4.8326e-05
4.88648e-05
4.91864e-05
4.93661e-05
4.94468e-05
4.94485e-05
4.93729e-05
4.92047e-05
4.89094e-05
4.84264e-05
4.76582e-05
4.64533e-05
4.45824e-05
4.17124e-05
3.7398e-05
3.11625e-05
2.28614e-05
1.36016e-05
6.35446e-06
3.30207e-06
4.09916e-06
1.02938e-05
2.50633e-05
4.72346e-05
7.24877e-05
9.76984e-05
0.000121179
0.000141915
0.000159171
0.000172334
0.000180839
0.000184136
0.000181674
0.000172896
0.000157261
0.000134309
0.000103862
6.6766e-05
2.95642e-05
3.04702e-05
6.45571e-05
9.70899e-05
0.000122459
0.000140302
0.000151045
0.000155288
0.000153664
0.000146791
0.00013528
0.00011974
0.000100819
7.92793e-05
5.62011e-05
3.35322e-05
1.51916e-05
5.44965e-06
3.14421e-06
5.60043e-06
1.29469e-05
2.27771e-05
3.15384e-05
3.79847e-05
4.23357e-05
4.51448e-05
4.69176e-05
4.80201e-05
4.86955e-05
4.90982e-05
4.93225e-05
4.9422e-05
4.94213e-05
4.93225e-05
4.91059e-05
4.87269e-05
4.81077e-05
4.71231e-05
4.55792e-05
4.31859e-05
3.95359e-05
3.41317e-05
2.66009e-05
1.73929e-05
8.8535e-06
4.08366e-06
3.49653e-06
7.55199e-06
1.95579e-05
4.00915e-05
6.51426e-05
9.10031e-05
0.000115655
0.000137971
0.000157199
0.000172745
0.000184087
0.000190726
0.000192169
0.000187916
0.000177465
0.000160331
0.000136113
0.000104696
6.69784e-05
2.9539e-05
3.04693e-05
6.47516e-05
9.77425e-05
0.000123823
0.0001426
0.000154456
0.000159949
0.000159663
0.000154173
0.000144039
0.000129814
0.00011207
9.14492e-05
6.87799e-05
4.54023e-05
2.40342e-05
9.42822e-06
3.7333e-06
3.93701e-06
9.04479e-06
1.82708e-05
2.7854e-05
3.54009e-05
4.0651e-05
4.40896e-05
4.62755e-05
4.76401e-05
4.84773e-05
4.89765e-05
4.92539e-05
4.93754e-05
4.93716e-05
4.92443e-05
4.89683e-05
4.84867e-05
4.77003e-05
4.64497e-05
4.44898e-05
4.14624e-05
3.68901e-05
3.02826e-05
2.15895e-05
1.22669e-05
5.60493e-06
3.39211e-06
5.45313e-06
1.43604e-05
3.24352e-05
5.67243e-05
8.29479e-05
0.000108589
0.000132326
0.000153348
0.000171062
0.000184966
0.000194602
0.000199523
0.000199279
0.000193415
0.000181473
0.000163014
0.000137684
0.000105419
6.71631e-05
2.95177e-05
3.04705e-05
6.49254e-05
9.83164e-05
0.000125019
0.000144616
0.000157457
0.000164061
0.000164979
0.000160745
0.00015188
0.000138893
0.0001223
0.000102658
8.06402e-05
5.72301e-05
3.42635e-05
1.55826e-05
5.62351e-06
3.37733e-06
6.19828e-06
1.39925e-05
2.39052e-05
3.2482e-05
3.86981e-05
4.28469e-05
4.5509e-05
4.71787e-05
4.82057e-05
4.88182e-05
4.91578e-05
4.93051e-05
4.92968e-05
4.91348e-05
4.87867e-05
4.81801e-05
4.71899e-05
4.56153e-05
4.31521e-05
3.93696e-05
3.37452e-05
2.5917e-05
1.64882e-05
8.13506e-06
3.93687e-06
4.13063e-06
9.94064e-06
2.47323e-05
4.74792e-05
7.36623e-05
0.00010007
0.000125061
0.000147713
0.000167405
0.000183643
0.000195993
0.000204043
0.000207386
0.000205608
0.000198292
0.000185014
0.000165376
0.000139064
0.000106055
6.7326e-05
2.94995e-05
3.04733e-05
6.50824e-05
9.88257e-05
0.000126077
0.000146398
0.000160113
0.000167713
0.000169714
0.000166621
0.000158923
0.000147092
0.0001316
0.000112944
9.16951e-05
6.86177e-05
4.5003e-05
2.35704e-05
9.14873e-06
3.78913e-06
4.4543e-06
1.02752e-05
1.98541e-05
2.92651e-05
3.64745e-05
4.14063e-05
4.46086e-05
4.66295e-05
4.7876e-05
4.86203e-05
4.90322e-05
4.92089e-05
4.91947e-05
4.89905e-05
4.8555e-05
4.77975e-05
4.65609e-05
4.45961e-05
4.15326e-05
3.68731e-05
3.01076e-05
2.12121e-05
1.18122e-05
5.39063e-06
3.62732e-06
6.65579e-06
1.75817e-05
3.77745e-05
6.33267e-05
9.02033e-05
0.000116259
0.00014038
0.00016188
0.000180254
0.00019508
0.00020597
0.00021255
0.000214445
0.000211272
0.000202642
0.000188164
0.000167472
0.000140287
0.000106617
6.74711e-05
2.94841e-05
3.04775e-05
6.52237e-05
9.9281e-05
0.000127019
0.000147985
0.000162481
0.000170973
0.000173953
0.000171899
0.000165271
0.000154514
0.000140064
0.000122373
0.00010194
7.93889e-05
5.56801e-05
3.26957e-05
1.44526e-05
5.26139e-06
3.67887e-06
7.37307e-06
1.59148e-05
2.58175e-05
3.39888e-05
3.97616e-05
4.35667e-05
4.5986e-05
4.7484e-05
4.83796e-05
4.88746e-05
4.90849e-05
4.90625e-05
4.88073e-05
4.8267e-05
4.73285e-05
4.57969e-05
4.33676e-05
3.9601e-05
3.39548e-05
2.60422e-05
1.64799e-05
8.07491e-06
4.02173e-06
4.64208e-06
1.16249e-05
2.81554e-05
5.22088e-05
7.91286e-05
0.000106014
0.000131432
0.000154578
0.000174913
0.00019201
0.000205497
0.000215024
0.000220244
0.00022081
0.000216364
0.000206543
0.000190982
0.000169344
0.000141377
0.000107119
6.76016e-05
2.94711e-05
3.04828e-05
6.53526e-05
9.96898e-05
0.000127863
0.000149405
0.000164602
0.000173899
0.000177765
0.000176658
0.000171013
0.00016125
0.00014778
0.000131017
0.000111407
8.9482e-05
6.59919e-05
4.22811e-05
2.13011e-05
8.01774e-06
3.7392e-06
5.38074e-06
1.23266e-05
2.22402e-05
3.12632e-05
3.79114e-05
4.23773e-05
4.52431e-05
4.70257e-05
4.80935e-05
4.8683e-05
4.89307e-05
4.88974e-05
4.85809e-05
4.79158e-05
4.67619e-05
4.48807e-05
4.1906e-05
3.73331e-05
3.06238e-05
2.16965e-05
1.21388e-05
5.56181e-06
3.84668e-06
7.3443e-06
1.93678e-05
4.07238e-05
6.70446e-05
9.44423e-05
0.000120958
0.000145587
0.000167719
0.000186907
0.000202782
0.000215009
0.000223264
0.000227227
0.000226571
0.000220962
0.000210058
0.000193518
0.000171025
0.000142356
0.00010757
6.77199e-05
2.946e-05
3.04889e-05
6.54708e-05
0.00010006
0.000128623
0.000150685
0.000166513
0.000176538
0.000181209
0.000180966
0.000176224
0.000167382
0.000154828
0.000138948
0.000120148
9.88933e-05
7.57966e-05
5.18634e-05
2.91914e-05
1.21986e-05
4.63291e-06
4.24137e-06
9.30313e-06
1.86675e-05
2.83365e-05
3.58604e-05
4.10367e-05
4.43962e-05
4.64976e-05
4.77594e-05
4.84552e-05
4.87442e-05
4.86966e-05
4.8307e-05
4.74941e-05
4.60862e-05
4.37952e-05
4.01898e-05
3.47167e-05
2.69307e-05
1.73148e-05
8.5982e-06
4.25279e-06
4.86324e-06
1.224e-05
2.95185e-05
5.42557e-05
8.16979e-05
0.000109058
0.000134994
0.000158764
0.000179878
0.000197957
0.000212671
0.000223714
0.000230786
0.000233586
0.000231807
0.000225133
0.000213241
0.00019581
0.000172544
0.00014324
0.000107978
6.78279e-05
2.94506e-05
3.04956e-05
6.558e-05
0.000100396
0.000129312
0.000151843
0.000168243
0.000178928
0.000184333
0.000184879
0.000180968
0.000172979
0.00016128
0.000146235
0.000128219
0.000107647
8.50392e-05
6.11815e-05
3.75913e-05
1.77072e-05
6.48094e-06
3.84079e-06
6.97693e-06
1.52577e-05
2.52658e-05
3.36207e-05
3.95442e-05
4.34421e-05
4.58968e-05
4.73749e-05
4.81893e-05
4.85235e-05
4.84573e-05
4.79811e-05
4.69947e-05
4.529e-05
4.25239e-05
3.8202e-05
3.17576e-05
2.29828e-05
1.32195e-05
6.10105e-06
4.00163e-06
7.36295e-06
1.95147e-05
4.12519e-05
6.80101e-05
9.58633e-05
0.000122892
0.000148135
0.000171018
0.000191134
0.000208149
0.000221766
0.0002317
0.000237671
0.000239396
0.000236582
0.000228931
0.000216135
0.000197891
0.000173922
0.000144042
0.000108349
6.7927e-05
2.94427e-05
3.05029e-05
6.56814e-05
0.000100704
0.00012994
0.000152895
0.000169815
0.000181102
0.000187177
0.000188448
0.0001853
0.0001781
0.000167199
0.000152941
0.000135675
0.000115781
9.37105e-05
7.01036e-05
4.60979e-05
2.42281e-05
9.41433e-06
4.10975e-06
5.37283e-06
1.21724e-05
2.21274e-05
3.12128e-05
3.79024e-05
4.23792e-05
4.52211e-05
4.69381e-05
4.78836e-05
4.82665e-05
4.81764e-05
4.75985e-05
4.64099e-05
4.43617e-05
4.10521e-05
3.59332e-05
2.84889e-05
1.89537e-05
9.73975e-06
4.66004e-06
4.78362e-06
1.17309e-05
2.88253e-05
5.37417e-05
8.15523e-05
0.000109394
0.000135923
0.000160418
0.000182415
0.000201564
0.000217566
0.000230148
0.000239045
0.000243992
0.000244719
0.000240951
0.0002324
0.000218776
0.000199789
0.000175178
0.000144773
0.000108687
6.80185e-05
2.94361e-05
3.05107e-05
6.57761e-05
0.000100987
0.000130513
0.000153855
0.000171249
0.000183086
0.000189774
0.000191711
0.000189269
0.0001828
0.000172642
0.000159122
0.000142571
0.000123338
0.000101825
7.8571e-05
5.4462e-05
3.1361e-05
1.34522e-05
5.06773e-06
4.43337e-06
9.54745e-06
1.90146e-05
2.86664e-05
3.61175e-05
4.12073e-05
4.4469e-05
4.64477e-05
4.75367e-05
4.79714e-05
4.78515e-05
4.71546e-05
4.57326e-05
4.32906e-05
3.93679e-05
3.33853e-05
2.49789e-05
1.50765e-05
7.10584e-06
4.16255e-06
6.78989e-06
1.81186e-05
3.9499e-05
6.64006e-05
9.46502e-05
0.000122231
0.000148166
0.000171892
0.000193019
0.000211238
0.00022628
0.000237889
0.000245815
0.000249808
0.000249611
0.00024496
0.00023558
0.000221194
0.000201525
0.000176326
0.000145442
0.000108998
6.81033e-05
2.94305e-05
3.05187e-05
6.58648e-05
0.000101247
0.000131039
0.000154734
0.000172562
0.000184902
0.000192155
0.000194704
0.000192913
0.000187123
0.000177657
0.000164831
0.000148957
0.000130361
0.000109409
8.65655e-05
6.2546e-05
3.87513e-05
1.84562e-05
6.79379e-06
4.07723e-06
7.46492e-06
1.6032e-05
2.60212e-05
3.41999e-05
3.99279e-05
4.364e-05
4.59027e-05
4.71475e-05
4.76367e-05
4.74798e-05
4.66453e-05
4.49556e-05
4.20671e-05
3.74641e-05
3.05757e-05
2.13387e-05
1.16076e-05
5.38304e-06
4.54485e-06
1.0311e-05
2.62871e-05
5.08622e-05
7.88762e-05
0.000107189
0.000134362
0.000159655
0.00018261
0.000202892
0.000220225
0.000234357
0.000245051
0.00025207
0.000255174
0.000254119
0.00024865
0.000238504
0.000223415
0.000203119
0.000177381
0.000146056
0.000109284
6.81821e-05
2.94259e-05
3.05269e-05
6.59482e-05
0.000101489
0.000131523
0.000155542
0.000173767
0.000186571
0.000194342
0.000197458
0.000196269
0.000191108
0.000182288
0.000170112
0.000154879
0.000136894
0.000116494
9.40913e-05
7.028e-05
4.61467e-05
2.41737e-05
9.35627e-06
4.25253e-06
5.94248e-06
1.32843e-05
2.33264e-05
3.21643e-05
3.85444e-05
4.27344e-05
4.53026e-05
4.67151e-05
4.72611e-05
4.7059e-05
4.60662e-05
4.40727e-05
4.06836e-05
3.53397e-05
2.75427e-05
1.77221e-05
8.76375e-06
4.50724e-06
5.89103e-06
1.55141e-05
3.5724e-05
6.24187e-05
9.09735e-05
0.00011912
0.000145799
0.000170429
0.000192626
0.000212095
0.000228583
0.000241856
0.000251691
0.00025786
0.000260136
0.000258282
0.000252054
0.0002412
0.000225462
0.000204588
0.000178352
0.000146623
0.000109549
6.82557e-05
2.94222e-05
3.05352e-05
6.60267e-05
0.000101713
0.00013197
0.000156287
0.000174878
0.000188107
0.000196358
0.000199997
0.000199367
0.000194791
0.000186574
0.000175007
0.000160377
0.000142976
0.000123115
0.000101164
7.76337e-05
5.33913e-05
3.0322e-05
1.27507e-05
4.95839e-06
4.94623e-06
1.08624e-05
2.06398e-05
3.00302e-05
3.70623e-05
4.17535e-05
4.46476e-05
4.62394e-05
4.68437e-05
4.65871e-05
4.54138e-05
4.30781e-05
3.91347e-05
3.30021e-05
2.43492e-05
1.43125e-05
6.66245e-06
4.39368e-06
8.39739e-06
2.22964e-05
4.58755e-05
7.3858e-05
0.000102592
0.000130431
0.000156569
0.000180533
0.000201993
0.000220682
0.000236367
0.000248831
0.000257857
0.000263232
0.000264734
0.000262136
0.000255203
0.000243691
0.000227353
0.000205943
0.000179249
0.000147146
0.000109794
6.83246e-05
2.94192e-05
3.05437e-05
6.61009e-05
0.000101921
0.000132384
0.000156975
0.000175903
0.000189526
0.00019822
0.000202344
0.000202233
0.000198201
0.000190546
0.000179551
0.000165491
0.000148643
0.000129303
0.000107806
8.45996e-05
6.03965e-05
3.66558e-05
1.68796e-05
6.2313e-06
4.41986e-06
8.82969e-06
1.80249e-05
2.78215e-05
3.54891e-05
4.06996e-05
4.39384e-05
4.57203e-05
4.63839e-05
4.60625e-05
4.46848e-05
4.19673e-05
3.74186e-05
3.04697e-05
2.10854e-05
1.12929e-05
5.30819e-06
5.03285e-06
1.22401e-05
3.03149e-05
5.63012e-05
8.50003e-05
0.000113684
0.000141131
0.000166706
0.000190012
0.000210758
0.000228702
0.000243628
0.000255327
0.000263594
0.000268224
0.000269003
0.000265712
0.000258123
0.000246
0.000229104
0.000207199
0.00018008
0.000147631
0.000110021
6.83893e-05
2.94167e-05
3.05521e-05
6.61711e-05
0.000102116
0.000132769
0.000157613
0.000176852
0.00019084
0.000199944
0.000204518
0.000204889
0.000201366
0.000194236
0.000183776
0.000170253
0.000153931
0.00013509
0.000114042
9.11833e-05
6.71156e-05
4.29959e-05
2.15761e-05
8.11042e-06
4.31412e-06
7.21412e-06
1.55466e-05
2.55668e-05
3.38343e-05
3.9576e-05
4.31765e-05
4.51584e-05
4.58813e-05
4.54838e-05
4.38767e-05
4.07374e-05
3.55376e-05
2.77737e-05
1.78662e-05
8.8065e-06
4.63801e-06
6.51505e-06
1.74447e-05
3.91321e-05
6.67067e-05
9.57472e-05
0.000124237
0.000151242
0.000176245
0.000198908
0.000218968
0.000236203
0.000250408
0.000261386
0.000268941
0.000272872
0.000272974
0.000269036
0.000260835
0.000248143
0.000230729
0.000208364
0.000180851
0.000148082
0.000110234
6.84501e-05
2.94148e-05
3.05606e-05
6.62376e-05
0.000102299
0.000133128
0.000158206
0.000177733
0.000192058
0.000201544
0.000206536
0.000207357
0.000204307
0.000197669
0.000187712
0.000174693
0.000158871
0.000140508
0.000119898
9.73977e-05
7.35272e-05
4.92262e-05
2.6648e-05
1.06033e-05
4.60425e-06
6.00971e-06
1.32654e-05
2.32985e-05
3.21095e-05
3.83871e-05
4.23636e-05
4.45546e-05
4.53362e-05
4.48501e-05
4.29875e-05
3.9387e-05
3.34995e-05
2.49606e-05
1.48219e-05
6.92563e-06
4.59176e-06
8.97924e-06
2.38454e-05
4.83524e-05
7.69119e-05
0.000106049
0.000134254
0.000160789
0.000185224
0.000207262
0.000226665
0.000243225
0.000256749
0.000267047
0.000273931
0.000277206
0.000276675
0.000272131
0.000263359
0.000250137
0.00023224
0.000209448
0.000181568
0.000148502
0.000110432
6.85074e-05
2.94134e-05
3.05689e-05
6.63007e-05
0.00010247
0.000133462
0.000158757
0.000178552
0.000193191
0.00020303
0.000208412
0.000209652
0.000207046
0.000200868
0.000191383
0.00017884
0.000163489
0.000145584
0.000125398
0.000103259
7.96253e-05
5.52766e-05
3.19177e-05
1.36682e-05
5.29125e-06
5.18706e-06
1.12315e-05
2.1052e-05
3.03282e-05
3.7138e-05
4.15023e-05
4.39103e-05
4.47491e-05
4.41613e-05
4.20162e-05
3.79168e-05
3.13179e-05
2.20921e-05
1.20801e-05
5.64958e-06
5.16311e-06
1.25247e-05
3.11443e-05
5.76831e-05
8.68121e-05
0.000115887
0.000143748
0.000169801
0.000193679
0.000215114
0.000233889
0.000249808
0.000262686
0.000272343
0.000278595
0.000281255
0.00028013
0.000275019
0.000265713
0.000251996
0.000233649
0.000210457
0.000182237
0.000148894
0.000110617
6.85615e-05
2.94124e-05
3.05772e-05
6.63607e-05
0.000102631
0.000133775
0.000159272
0.000179315
0.000194245
0.000204415
0.00021016
0.000211792
0.0002096
0.000203854
0.000194812
0.000182718
0.000167814
0.000150343
0.000130566
0.000108787
8.54131e-05
6.11075e-05
3.72438e-05
1.72171e-05
6.39051e-06
4.7078e-06
9.47898e-06
1.88643e-05
2.85059e-05
3.58349e-05
4.05955e-05
4.32272e-05
4.4121e-05
4.34173e-05
4.09627e-05
3.63299e-05
2.90139e-05
1.92442e-05
9.74392e-06
4.9326e-06
6.40792e-06
1.71413e-05
3.90107e-05
6.69314e-05
9.63499e-05
0.000125257
0.000152742
0.00017831
0.000201643
0.000222498
0.000240674
0.000255984
0.000268252
0.000277303
0.000282961
0.000285042
0.00028336
0.000277717
0.000267911
0.000253732
0.000234964
0.0002114
0.000182861
0.000149261
0.000110791
6.86127e-05
2.94117e-05
3.05854e-05
6.64177e-05
0.000102782
0.000134068
0.000159753
0.000180028
0.000195229
0.000205707
0.000211791
0.000213789
0.000211985
0.000206645
0.00019802
0.000186349
0.000171867
0.00015481
0.000135426
0.000114
9.08994e-05
6.66986e-05
4.25256e-05
2.11335e-05
7.91505e-06
4.53736e-06
8.02357e-06
1.6772e-05
2.66595e-05
3.44847e-05
3.96469e-05
4.25075e-05
4.34532e-05
4.26189e-05
3.98279e-05
3.46323e-05
2.66163e-05
1.65021e-05
7.87421e-06
4.72448e-06
8.41271e-06
2.26955e-05
4.71577e-05
7.59775e-05
0.000105497
0.000134168
0.000161257
0.000186345
0.00020915
0.000229449
0.000247053
0.000261785
0.000273476
0.000281956
0.000287053
0.00028859
0.000286383
0.000280242
0.000269968
0.000255355
0.000236194
0.000212282
0.000183446
0.000149604
0.000110954
6.86611e-05
2.94114e-05
3.05935e-05
6.6472e-05
0.000102925
0.000134344
0.000160203
0.000180694
0.000196149
0.000206913
0.000213315
0.000215655
0.000214216
0.000209257
0.000201024
0.000189752
0.00017567
0.000159006
0.000139999
0.000118917
9.6096e-05
7.20415e-05
4.76974e-05
2.52945e-05
9.86122e-06
4.65258e-06
6.86349e-06
1.48093e-05
2.48073e-05
3.30952e-05
3.86603e-05
4.17537e-05
4.27475e-05
4.17674e-05
3.86139e-05
3.28328e-05
2.41619e-05
1.39522e-05
6.48475e-06
5.0023e-06
1.12443e-05
2.89698e-05
5.53723e-05
8.47504e-05
0.000114243
0.000142633
0.000169318
0.000193935
0.00021623
0.000235996
0.000253056
0.00026724
0.000278384
0.000286324
0.000290893
0.000291917
0.000289218
0.000282609
0.000271895
0.000256875
0.000237345
0.000213108
0.000183993
0.000149926
0.000111108
6.8707e-05
2.94113e-05
3.06014e-05
6.65237e-05
0.000103059
0.000134602
0.000160626
0.000181319
0.00019701
0.000208043
0.000214741
0.000217403
0.000216305
0.000211704
0.000203841
0.000192946
0.000179242
0.000162952
0.000144305
0.000123556
0.000101016
7.71356e-05
5.27181e-05
2.95879e-05
1.22015e-05
5.04303e-06
5.98338e-06
1.30053e-05
2.29685e-05
3.16747e-05
3.76401e-05
4.09688e-05
4.20059e-05
4.08645e-05
3.73238e-05
3.09438e-05
2.1695e-05
1.16715e-05
5.55289e-06
5.78136e-06
1.49079e-05
3.5722e-05
6.35107e-05
9.321e-05
0.000122589
0.000150672
0.000176951
0.000201108
0.000222911
0.000242169
0.00025871
0.000272374
0.000283001
0.000290431
0.000294501
0.000295042
0.000291879
0.00028483
0.000273703
0.000258301
0.000238426
0.000213882
0.000184507
0.000150228
0.000111252
6.87505e-05
2.94114e-05
3.06092e-05
6.6573e-05
0.000103187
0.000134846
0.000161023
0.000181904
0.000197817
0.000209102
0.000216078
0.000219041
0.000218264
0.000213999
0.000206485
0.000195946
0.0001826
0.000166665
0.000148362
0.000127935
0.000105674
8.19851e-05
5.7564e-05
3.39226e-05
1.48856e-05
5.70751e-06
5.36013e-06
1.13823e-05
2.11624e-05
3.0232e-05
3.65908e-05
4.01558e-05
4.1231e-05
3.99126e-05
3.5962e-05
2.8981e-05
1.92658e-05
9.71674e-06
5.03997e-06
7.10456e-06
1.93317e-05
4.2734e-05
7.14809e-05
0.000101336
0.000130542
0.000158301
0.000184178
0.000207889
0.00022922
0.000247992
0.000264041
0.000277211
0.000287347
0.000294295
0.000297894
0.00029798
0.00029438
0.000286916
0.000275401
0.00025964
0.00023944
0.00021461
0.00018499
0.000150512
0.000111388
6.87919e-05
2.94117e-05
3.06168e-05
6.662e-05
0.000103307
0.000135075
0.000161396
0.000182454
0.000198575
0.000210095
0.000217332
0.000220578
0.000220103
0.000216155
0.00020897
0.000198767
0.000185761
0.000170163
0.000152188
0.000132071
0.000110084
8.65973e-05
6.22223e-05
3.82301e-05
1.78471e-05
6.64775e-06
4.96867e-06
9.95423e-06
1.94081e-05
2.87764e-05
3.55174e-05
3.93181e-05
4.04255e-05
3.89143e-05
3.45342e-05
2.69637e-05
1.69276e-05
8.11864e-06
4.91169e-06
9.01856e-06
2.43816e-05
4.98351e-05
7.92263e-05
0.000109122
0.000138116
0.000165543
0.000191024
0.000214304