/*--------------------------------*- C++ -*----------------------------------*\
| =========                 |                                                 |
| \\      /  F ield         | OpenFOAM: The Open Source CFD Toolbox           |
|  \\    /   O peration     | Version:  1.7.x                                 |
|   \\  /    A nd           | Web:      www.OpenFOAM.com                      |
|    \\/     M anipulation  |                                                 |
\*---------------------------------------------------------------------------*/
FoamFile
{
    version     2.0;
    format      ascii;
    class       volVectorField;
    location    "1000";
    object      U;
}
// * * * * * * * * * * * * * * * * * * * * * * * * * * * * * * * * * * * * * //

dimensions      [0 1 -1 0 0 0 0];

internalField   nonuniform List<vector> 
52875
(
(0.0204412 1.57789e-12 6.09267)
(0.0448977 4.57544e-12 7.14048)
(0.0608553 2.36641e-11 7.65642)
(0.0624138 9.06838e-12 7.87525)
(0.0598572 3.35182e-12 7.96174)
(0.0563378 1.20697e-12 7.99471)
(0.0524928 4.82471e-13 8.00671)
(0.0485807 5.45841e-13 8.0107)
(0.0447289 1.78036e-12 8.01174)
(0.0410361 1.35385e-11 8.01176)
(0.0375325 7.01813e-12 8.01148)
(0.0341742 7.74627e-12 8.01112)
(0.0309309 6.37892e-12 8.01076)
(0.0277951 2.74786e-12 8.01043)
(0.0247601 1.19464e-12 8.01012)
(0.0218173 5.26657e-13 8.00984)
(0.0189582 2.35804e-13 8.0096)
(0.0161759 1.06994e-13 8.00939)
(0.0134642 4.90685e-14 8.00921)
(0.010818 2.29339e-14 8.00906)
(0.00823251 1.1613e-14 8.00894)
(0.0057035 7.91101e-15 8.00885)
(0.00322747 9.47937e-15 8.00879)
(0.000800904 1.72268e-14 8.00875)
(-0.00158335 3.57198e-14 8.00875)
(-0.00392011 7.51579e-14 8.00877)
(-0.00621793 1.55482e-13 8.00882)
(-0.00847831 3.17334e-13 8.0089)
(-0.0107037 6.38714e-13 8.009)
(-0.0128965 1.2637e-12 8.00912)
(-0.0150592 2.43685e-12 8.00928)
(-0.017194 4.59105e-12 8.00945)
(-0.019303 9.05561e-12 8.00965)
(-0.0213881 3.73308e-12 8.00988)
(-0.0234513 1.52481e-12 8.01013)
(-0.0254944 6.23518e-13 8.0104)
(-0.027519 2.56505e-13 8.01069)
(-0.0295267 1.06138e-13 8.01101)
(-0.0315193 4.40436e-14 8.01136)
(-0.033498 1.82701e-14 8.01172)
(-0.0354643 7.57195e-15 8.01211)
(-0.0374197 3.16832e-15 8.01252)
(-0.0393653 1.41546e-15 8.01295)
(-0.0413026 8.22333e-16 8.01341)
(-0.0432327 8.28974e-16 8.01389)
(-0.0451569 1.32325e-15 8.01439)
(-0.0470766 2.49751e-15 8.01491)
(-0.048993 4.91252e-15 8.01545)
(-0.050908 9.77908e-15 8.01602)
(-0.0528235 1.96196e-14 8.01661)
(-0.0547423 3.97343e-14 8.01721)
(-0.0566673 8.15302e-14 8.01783)
(-0.0586021 1.70563e-13 8.01845)
(-0.0605521 3.6773e-13 8.01905)
(-0.0625291 8.29143e-13 8.01957)
(-0.0645445 1.97007e-12 8.01985)
(-0.0665809 4.86312e-12 8.01946)
(-0.0685863 6.74247e-12 8.01739)
(-0.0704694 9.81745e-12 8.01117)
(-0.0720348 1.44307e-12 7.99496)
(-0.0729513 7.34229e-13 7.9549)
(-0.0725314 1.42568e-12 7.85798)
(-0.0675508 3.34939e-12 7.62667)
(-0.0480434 7.75467e-12 7.09927)
(-0.0212936 2.62943e-12 6.03797)
(0.00907755 1.4876e-12 4.99331)
(0.0202209 3.23942e-12 6.39972)
(0.0293215 1.00411e-11 7.2635)
(0.0334532 6.52747e-12 7.7492)
(0.0345508 3.62053e-12 7.98524)
(0.0338084 1.72042e-12 8.08299)
(0.0321215 8.1449e-13 8.11955)
(0.030058 6.56314e-13 8.13222)
(0.0278799 1.00659e-12 8.13603)
(0.0256895 1.97471e-12 8.13674)
(0.0235389 5.7736e-13 8.13649)
(0.0214343 -6.87726e-12 8.13598)
(0.0193679 1.10456e-13 8.13544)
(0.0173411 1.1609e-12 8.13492)
(0.0153594 9.62831e-13 8.13443)
(0.0134253 6.24812e-13 8.13398)
(0.0115383 3.69487e-13 8.13357)
(0.00969674 2.07499e-13 8.13322)
(0.00789815 1.12644e-13 8.13292)
(0.0061402 6.06612e-14 8.13267)
(0.00442061 3.55518e-14 8.13247)
(0.00273728 2.80323e-14 8.13232)
(0.0010887 3.5128e-14 8.13222)
(-0.000529634 5.98373e-14 8.13217)
(-0.00211681 1.11424e-13 8.13217)
(-0.00367579 2.06902e-13 8.13222)
(-0.00520932 3.71186e-13 8.13232)
(-0.00671828 6.33773e-13 8.13246)
(-0.00820389 1.01385e-12 8.13265)
(-0.00966735 1.46299e-12 8.13288)
(-0.0111098 1.71098e-12 8.13316)
(-0.0125322 9.09768e-13 8.13348)
(-0.0139355 1.17855e-12 8.13384)
(-0.0153208 2.78411e-13 8.13425)
(-0.0166887 7.49709e-13 8.13469)
(-0.0180402 5.75616e-13 8.13518)
(-0.0193759 3.51369e-13 8.13571)
(-0.0206966 1.9365e-13 8.13628)
(-0.0220029 1.00051e-13 8.13689)
(-0.0232954 4.94645e-14 8.13754)
(-0.0245748 2.3709e-14 8.13823)
(-0.0258416 1.12077e-14 8.13895)
(-0.0270962 5.49254e-15 8.13972)
(-0.0283391 3.28227e-15 8.14052)
(-0.0295707 3.14981e-15 8.14136)
(-0.0307913 4.8034e-15 8.14224)
(-0.032001 9.02831e-15 8.14315)
(-0.0331997 1.54409e-14 8.14409)
(-0.0343869 2.6674e-14 8.14505)
(-0.0355613 4.86112e-14 8.14604)
(-0.0367205 9.13536e-14 8.14704)
(-0.0378599 1.73517e-13 8.14805)
(-0.0389732 3.36837e-13 8.14905)
(-0.0400534 6.72235e-13 8.14999)
(-0.0410925 1.37235e-12 8.1507)
(-0.0420765 2.77064e-12 8.15067)
(-0.0429801 5.0766e-12 8.14864)
(-0.0437549 6.7354e-12 8.14158)
(-0.0442638 -2.14005e-12 8.12221)
(-0.0441561 7.89326e-13 8.07322)
(-0.0428082 8.32913e-13 7.95544)
(-0.0393816 9.54531e-13 7.69487)
(-0.0329625 2.9221e-13 7.18885)
(-0.0219724 -3.38611e-12 6.31219)
(-0.00954154 -5.11888e-13 4.89374)
(0.00417762 6.30183e-13 4.43345)
(0.0111225 1.10715e-12 5.87918)
(0.0175817 2.34308e-12 6.8211)
(0.0229384 2.91037e-12 7.45403)
(0.0264232 2.61829e-12 7.85521)
(0.0276262 1.75416e-12 8.07399)
(0.0270255 9.93891e-13 8.17068)
(0.0255272 5.87068e-13 8.2065)
(0.0237029 1.1871e-15 8.21834)
(0.0217981 -1.62994e-12 8.22172)
(0.0199187 -1.84025e-12 8.22234)
(0.0181029 -4.07187e-12 8.22217)
(0.0163443 -1.64454e-12 8.22181)
(0.0146302 -1.54308e-12 8.22141)
(0.0129573 -4.36438e-12 8.22102)
(0.0113252 -1.23442e-11 8.22066)
(0.00973306 -5.2074e-12 8.22033)
(0.0081791 -2.88338e-12 8.22003)
(0.00666119 -2.74752e-12 8.21978)
(0.00517727 -8.4314e-12 8.21956)
(0.00372535 -2.16615e-12 8.21939)
(0.00230368 -1.09475e-12 8.21927)
(0.000910974 -4.44784e-13 8.21919)
(-0.000456571 -9.47942e-14 8.21916)
(-0.00179734 1.31796e-13 8.21917)
(-0.00311425 3.50832e-13 8.21922)
(-0.00440874 6.37533e-13 8.21931)
(-0.00568177 1.05123e-12 8.21945)
(-0.00693443 1.66459e-12 8.21963)
(-0.00816779 2.63712e-12 8.21984)
(-0.00938282 4.4668e-12 8.2201)
(-0.0105804 8.69376e-12 8.22039)
(-0.0117614 1.83982e-12 8.22073)
(-0.0129267 -4.69732e-13 8.2211)
(-0.0140769 -3.80928e-12 8.22151)
(-0.0152127 3.76686e-12 8.22195)
(-0.0163349 1.16141e-11 8.22243)
(-0.0174439 1.11759e-11 8.22295)
(-0.0185405 4.43309e-12 8.2235)
(-0.0196251 1.75021e-12 8.22409)
(-0.0206982 6.60888e-13 8.22471)
(-0.0217603 1.92279e-13 8.22536)
(-0.0228118 -5.31805e-14 8.22605)
(-0.0238531 -2.59481e-13 8.22677)
(-0.0248846 -6.48603e-13 8.22751)
(-0.0259065 -2.18805e-12 8.22829)
(-0.026919 3.95665e-12 8.22908)
(-0.0279224 8.04014e-12 8.2299)
(-0.0289166 1.40313e-12 8.23072)
(-0.0299015 -4.08754e-12 8.23156)
(-0.0308768 4.0292e-12 8.23239)
(-0.0318423 7.53242e-13 8.23321)
(-0.0327995 6.52031e-13 8.23398)
(-0.0337506 7.84119e-13 8.23453)
(-0.0346916 1.05105e-12 8.23439)
(-0.0355985 4.76995e-13 8.23226)
(-0.0364079 -5.14608e-12 8.22482)
(-0.0369646 3.01438e-12 8.20394)
(-0.0369237 -8.70618e-13 8.15018)
(-0.0356364 1.07624e-13 8.02448)
(-0.0323655 -3.62953e-12 7.77276)
(-0.0269285 6.95724e-12 7.34522)
(-0.0199065 5.9367e-12 6.69581)
(-0.0122109 -1.4432e-12 5.74685)
(-0.00444825 -8.1909e-12 4.29899)
(0.00194731 4.26261e-12 4.16769)
(0.00583576 8.32413e-12 5.5726)
(0.0101607 1.86652e-11 6.48802)
(0.0148331 8.54552e-12 7.14966)
(0.018966 4.72008e-12 7.63302)
(0.0217539 2.73014e-12 7.96295)
(0.0227854 1.51754e-12 8.15616)
(0.0223027 1.02286e-12 8.24533)
(0.0210037 2.50732e-12 8.27778)
(0.0194047 1.96461e-11 8.28785)
(0.0177341 2.02874e-12 8.29047)
(0.0160913 -2.18995e-12 8.29088)
(0.0145073 -1.98629e-12 8.2907)
(0.0129723 -2.57703e-12 8.29039)
(0.011476 -4.72442e-12 8.29005)
(0.0100162 -7.54475e-12 8.28973)
(0.00859219 -6.00148e-12 8.28943)
(0.0072024 -5.57901e-12 8.28915)
(0.0058449 -7.86398e-12 8.28892)
(0.00451771 -1.4749e-11 8.28872)
(0.00321902 -6.90986e-12 8.28856)
(0.00194722 -3.19972e-12 8.28844)
(0.000701156 -1.40174e-12 8.28836)
(-0.00052258 -4.88987e-13 8.28833)
(-0.00172222 4.20841e-14 8.28834)
(-0.00290074 4.52667e-13 8.28839)
(-0.00405906 8.83486e-13 8.28848)
(-0.00519813 1.41526e-12 8.28862)
(-0.00631891 2.09984e-12 8.28879)
(-0.00742233 2.97196e-12 8.289)
(-0.00850923 4.01706e-12 8.28925)
(-0.00958041 4.8231e-12 8.28954)
(-0.0106366 2.8285e-12 8.28986)
(-0.0116785 1.75257e-12 8.29023)
(-0.0127068 1.92545e-12 8.29062)
(-0.013722 5.41575e-12 8.29106)
(-0.0147248 8.09415e-12 8.29152)
(-0.0157156 7.75445e-12 8.29203)
(-0.016695 4.74535e-12 8.29256)
(-0.0176634 2.30132e-12 8.29313)
(-0.0186212 5.72446e-13 8.29374)
(-0.019569 -1.00638e-12 8.29437)
(-0.020507 -3.28881e-12 8.29503)
(-0.0214355 -7.72944e-12 8.29572)
(-0.022355 -2.84911e-12 8.29644)
(-0.0232657 -1.71141e-13 8.29717)
(-0.0241679 3.54715e-12 8.29792)
(-0.0250619 4.00878e-12 8.29868)
(-0.0259478 1.65388e-12 8.29945)
(-0.0268256 -1.15944e-13 8.30022)
(-0.0276955 9.72169e-13 8.30097)
(-0.0285582 1.02838e-12 8.30168)
(-0.029416 7.94823e-13 8.30221)
(-0.0302655 7.40796e-13 8.30215)
(-0.0310829 5.78813e-13 8.30026)
(-0.0318027 -6.64619e-13 8.29317)
(-0.0322639 -9.59498e-12 8.27218)
(-0.0321132 9.81378e-13 8.21683)
(-0.0307755 -2.52204e-13 8.09152)
(-0.0278002 2.28924e-13 7.85986)
(-0.0232377 1.08659e-12 7.49978)
(-0.0176049 2.55331e-12 6.9966)
(-0.0117418 2.89757e-12 6.32483)
(-0.00656516 5.7223e-13 5.4093)
(-0.00215322 -1.68839e-12 4.01266)
(0.000985626 5.61052e-12 4.03835)
(0.00319142 8.18616e-12 5.39713)
(0.00603231 1.01055e-11 6.26832)
(0.00951942 8.22151e-12 6.91198)
(0.0131569 6.01876e-12 7.4125)
(0.0163635 4.05712e-12 7.79632)
(0.0185758 2.52112e-12 8.06976)
(0.019411 1.71948e-12 8.2363)
(0.0189651 2.79855e-12 8.31463)
(0.0177961 8.94938e-12 8.3424)
(0.0163665 -4.76119e-12 8.35045)
(0.0148778 -5.93638e-12 8.35236)
(0.0134158 -3.05589e-12 8.35258)
(0.0120026 -3.12071e-12 8.35239)
(0.0106275 -4.47395e-12 8.35211)
(0.00928356 -5.89261e-12 8.35183)
(0.0079706 -5.91671e-12 8.35156)
(0.00668842 -6.32445e-12 8.3513)
(0.00543581 -7.95623e-12 8.35108)
(0.00421116 -1.03915e-11 8.35089)
(0.00301286 -9.89805e-12 8.35074)
(0.00183943 -8.04778e-12 8.35063)
(0.000689828 -5.1781e-12 8.35056)
(-0.00043895 -1.35253e-12 8.35053)
(-0.00154563 1.14485e-12 8.35054)
(-0.00263277 4.45263e-12 8.35059)
(-0.00370129 1.12146e-11 8.35068)
(-0.00475205 5.76806e-12 8.35082)
(-0.00578598 4.36918e-12 8.35099)
(-0.00680391 4.9572e-12 8.3512)
(-0.00780665 7.28371e-12 8.35145)
(-0.00879493 1.27605e-11 8.35174)
(-0.00976944 6.52761e-12 8.35206)
(-0.0107308 4.17743e-12 8.35242)
(-0.0116797 3.74924e-12 8.35281)
(-0.0126166 4.26537e-12 8.35324)
(-0.0135421 3.08172e-12 8.3537)
(-0.0144567 -2.46503e-12 8.3542)
(-0.0153608 5.0776e-13 8.35473)
(-0.0162548 -3.86394e-13 8.35529)
(-0.0171392 -3.49784e-12 8.35589)
(-0.0180144 -5.74421e-12 8.35651)
(-0.0188806 -6.8453e-12 8.35716)
(-0.0197381 -1.03638e-11 8.35783)
(-0.0205873 -3.76212e-12 8.35852)
(-0.0214284 -1.09364e-12 8.35922)
(-0.0222614 1.14352e-12 8.35994)
(-0.0230864 1.55734e-12 8.36066)
(-0.0239033 9.26228e-14 8.36138)
(-0.0247116 -2.65461e-12 8.36209)
(-0.0255112 -8.71477e-12 8.36276)
(-0.0263039 -3.88308e-12 8.3633)
(-0.0270872 -9.69903e-12 8.36335)
(-0.0278389 -9.92412e-13 8.3618)
(-0.0284955 -3.75532e-14 8.35534)
(-0.0288983 -1.16303e-12 8.33509)
(-0.0286962 -2.57976e-12 8.28054)
(-0.0273892 -6.10315e-14 8.16074)
(-0.0247205 1.11132e-13 7.95183)
(-0.0208704 6.33001e-13 7.64544)
(-0.0162898 1.33569e-12 7.23904)
(-0.0115402 2.02727e-12 6.72509)
(-0.00719354 2.0788e-12 6.07671)
(-0.00373687 1.31919e-12 5.21095)
(-0.00115357 3.79489e-13 3.86824)
(0.000563462 9.76615e-12 3.96747)
(0.0019216 1.37961e-11 5.29095)
(0.00383607 2.29319e-11 6.12449)
(0.00633995 1.32757e-11 6.74091)
(0.00920327 9.87138e-12 7.23182)
(0.0121011 6.78483e-12 7.62931)
(0.014638 4.40881e-12 7.94265)
(0.0163791 2.90103e-12 8.17096)
(0.0169759 2.67947e-12 8.31211)
(0.0164769 3.13235e-12 8.37817)
(0.0153614 -1.65126e-11 8.40069)
(0.0140335 -1.4483e-11 8.40678)
(0.012665 -8.29413e-12 8.40807)
(0.0113271 -4.50567e-12 8.40815)
(0.0100325 -4.63827e-12 8.40795)
(0.00876966 -5.52342e-12 8.40771)
(0.00753409 -6.33194e-12 8.40746)
(0.00632616 -7.99566e-12 8.40723)
(0.00514568 -1.18554e-11 8.40703)
(0.00399147 -1.40221e-11 8.40685)
(0.00286207 -1.28694e-11 8.4067)
(0.0017561 -9.9562e-12 8.4066)
(0.000672548 -5.18727e-12 8.40653)
(-0.000391258 -1.58637e-12 8.4065)
(-0.00143437 1.3182e-12 8.40651)
(-0.00245903 4.27588e-12 8.40656)
(-0.00346613 7.08664e-12 8.40666)
(-0.00445652 6.09309e-12 8.40679)
(-0.00543105 5.50547e-12 8.40696)
(-0.00639051 5.95804e-12 8.40717)
(-0.00733567 7.26644e-12 8.40742)
(-0.00826722 8.63756e-12 8.4077)
(-0.00918581 6.59135e-12 8.40802)
(-0.0100921 4.77755e-12 8.40838)
(-0.0109865 3.3537e-12 8.40877)
(-0.0118698 1.12437e-12 8.40919)
(-0.0127422 -5.28346e-12 8.40965)
(-0.0136045 -2.5393e-12 8.41015)
(-0.0144568 -1.34916e-12 8.41067)
(-0.0152998 -2.16921e-12 8.41123)
(-0.0161336 -4.63838e-12 8.41181)
(-0.0169588 -8.06109e-12 8.41242)
(-0.0177755 -9.77952e-12 8.41305)
(-0.018584 -9.73851e-12 8.41371)
(-0.0193847 -7.24545e-12 8.41437)
(-0.0201776 -4.08707e-12 8.41505)
(-0.0209628 -3.73931e-12 8.41574)
(-0.0217402 -8.2456e-12 8.41642)
(-0.0225093 -3.63893e-12 8.41709)
(-0.0232699 -4.04392e-12 8.41774)
(-0.0240239 -6.67909e-12 8.41829)
(-0.0247705 -5.02378e-12 8.41845)
(-0.0254895 -6.9925e-12 8.41723)
(-0.0261207 -1.66433e-12 8.41155)
(-0.0265109 -6.49033e-13 8.39267)
(-0.0263206 -1.27552e-12 8.34084)
(-0.0251176 -4.95466e-12 8.22949)
(-0.0227567 1.88501e-12 8.04281)
(-0.0194621 1.90463e-12 7.77911)
(-0.0156247 8.82547e-13 7.44075)
(-0.0116601 5.64911e-13 7.02689)
(-0.0079412 3.69864e-13 6.52731)
(-0.00477492 -2.48972e-12 5.91026)
(-0.00237671 -1.40349e-14 5.08632)
(-0.000710188 -9.06167e-14 3.78461)
(0.000360595 6.56267e-12 3.92381)
(0.00126775 7.81444e-12 5.22243)
(0.0026083 6.0394e-13 6.02779)
(0.00442127 8.05885e-12 6.61957)
(0.00660636 7.62676e-12 7.09394)
(0.00899412 6.50349e-12 7.48736)
(0.0113522 5.0671e-12 7.81329)
(0.0133812 3.69864e-12 8.07394)
(0.0147233 2.58116e-12 8.26531)
(0.0150714 5.51302e-13 8.38295)
(0.0144796 -1.07764e-11 8.4364)
(0.0133828 -1.23444e-12 8.45366)
(0.0121248 -6.42197e-12 8.45797)
(0.0108457 -4.14312e-12 8.45878)
(0.00960125 -1.46642e-12 8.45876)
(0.00839503 -6.5664e-13 8.45857)
(0.00721598 -3.02052e-12 8.45836)
(0.00606163 -7.41636e-12 8.45815)
(0.00493261 -1.10417e-11 8.45796)
(0.00382851 -1.41697e-11 8.45779)
(0.00274814 -1.15219e-11 8.45766)
(0.00169019 -8.4321e-12 8.45756)
(0.000653673 -4.76861e-12 8.45749)
(-0.000363879 -1.30347e-12 8.45746)
(-0.00136171 2.06886e-12 8.45748)
(-0.00234187 5.53731e-12 8.45753)
(-0.00330523 1.32192e-11 8.45762)
(-0.0042526 7.53389e-12 8.45776)
(-0.0051848 6.35874e-12 8.45793)
(-0.00610259 5.41227e-12 8.45814)
(-0.00700671 3.62636e-12 8.45838)
(-0.00789782 -1.92112e-12 8.45867)
(-0.00877654 2.91638e-12 8.45899)
(-0.00964347 3.5657e-12 8.45934)
(-0.0104991 2.68135e-12 8.45973)
(-0.0113441 8.77838e-13 8.46015)
(-0.0121787 -1.6216e-12 8.46061)
(-0.0130036 -1.906e-12 8.4611)
(-0.013819 -2.06609e-12 8.46162)
(-0.0146255 -3.07876e-12 8.46217)
(-0.0154232 -5.02307e-12 8.46274)
(-0.0162126 -7.36605e-12 8.46334)
(-0.0169939 -9.06431e-12 8.46396)
(-0.0177674 -1.00962e-11 8.4646)
(-0.0185334 -7.54098e-12 8.46525)
(-0.0192918 -5.47615e-12 8.4659)
(-0.0200427 -5.02829e-12 8.46655)
(-0.0207856 -6.20465e-12 8.4672)
(-0.0215201 -4.57939e-12 8.46782)
(-0.0222484 -4.62412e-12 8.46838)
(-0.022971 -5.9332e-12 8.46864)
(-0.0236706 -5.16786e-12 8.46776)
(-0.0242925 -5.48876e-12 8.46294)
(-0.0246932 -2.11952e-12 8.44597)
(-0.0245528 -1.53483e-12 8.39838)
(-0.0234908 -2.39656e-12 8.29709)
(-0.0214216 -3.2599e-12 8.13107)
(-0.018576 -4.78343e-12 7.90188)
(-0.0152905 -1.67614e-12 7.61387)
(-0.01189 -8.79564e-13 7.26895)
(-0.00864692 -7.5705e-13 6.8636)
(-0.00577158 -8.64866e-13 6.38404)
(-0.00341658 -9.79379e-13 5.79472)
(-0.00167056 -9.3292e-13 5.00221)
(-0.000494076 -6.90455e-13 3.72976)
(0.000251609 -2.87851e-11 3.89473)
(0.000896004 -8.31202e-12 5.17592)
(0.00187023 -1.20475e-12 5.96074)
(0.00321287 2.28651e-12 6.53273)
(0.00488279 4.02557e-12 6.99087)
(0.00679228 4.56966e-12 7.37443)
(0.00880969 4.31634e-12 7.69995)
(0.0107518 3.5488e-12 7.97297)
(0.0123748 2.2829e-12 8.19239)
(0.0133696 -3.16582e-13 8.35266)
(0.0134726 -7.02688e-12 8.44865)
(0.0127764 -4.00467e-12 8.48994)
(0.0116869 -5.85256e-12 8.50234)
(0.0104849 -3.84231e-12 8.50518)
(0.00928014 -1.16113e-12 8.50562)
(0.00811189 2.15962e-12 8.50555)
(0.00697609 -2.92143e-12 8.50538)
(0.00586374 -6.79253e-12 8.50519)
(0.0047742 -9.75899e-12 8.50502)
(0.00370802 -1.13511e-11 8.50486)
(0.00266463 -1.0057e-11 8.50474)
(0.00164289 -7.53276e-12 8.50464)
(0.000641836 -4.38257e-12 8.50458)
(-0.00034085 -1.02646e-12 8.50456)
(-0.00130454 2.43726e-12 8.50457)
(-0.00225116 5.82307e-12 8.50463)
(-0.00318155 8.13864e-12 8.50472)
(-0.0040965 7.83396e-12 8.50486)
(-0.0049968 6.53648e-12 8.50503)
(-0.00588319 4.91288e-12 8.50524)
(-0.00675638 2.40689e-12 8.50548)
(-0.00761702 -1.84669e-12 8.50577)
(-0.00846569 -6.70514e-12 8.50608)
(-0.00930298 -8.02352e-13 8.50644)
(-0.0101294 -2.43035e-13 8.50683)
(-0.0109455 -3.00468e-12 8.50725)
(-0.0117516 -9.70104e-12 8.50771)
(-0.0125483 -4.84678e-12 8.50819)
(-0.0133359 -3.50539e-12 8.50871)
(-0.0141148 -3.8769e-12 8.50925)
(-0.0148852 -5.20676e-12 8.50982)
(-0.0156476 -6.84986e-12 8.51041)
(-0.0164022 -8.10807e-12 8.51101)
(-0.0171492 -8.55262e-12 8.51163)
(-0.0178887 -7.59115e-12 8.51226)
(-0.0186209 -6.94878e-12 8.51288)
(-0.019345 -8.37766e-12 8.5135)
(-0.0200609 -1.48975e-11 8.51411)
(-0.0207702 -7.12893e-12 8.51467)
(-0.0214748 -5.29401e-12 8.51501)
(-0.0221612 -5.6276e-12 8.51445)
(-0.0227814 -5.04673e-12 8.51057)
(-0.0232066 -4.64618e-12 8.49595)
(-0.0231422 -2.69698e-12 8.45369)
(-0.0222425 -2.68063e-12 8.36324)
(-0.020446 -3.72168e-12 8.21613)
(-0.0179741 -5.04598e-12 8.01541)
(-0.0151197 -6.69107e-12 7.76626)
(-0.0121474 -8.78945e-12 7.47181)
(-0.00927078 -5.97319e-12 7.13153)
(-0.00665052 -5.36109e-12 6.73921)
(-0.00439971 -6.1856e-12 6.2785)
(-0.00259289 -1.05424e-11 5.71141)
(-0.00126347 -1.16533e-11 4.94212)
(-0.000375422 -6.77457e-12 3.69068)
(0.000185307 -1.53739e-11 3.87427)
(0.000663473 -1.38877e-11 5.14304)
(0.00139445 -1.73323e-11 5.91277)
(0.00241376 -3.90896e-12 6.46939)
(0.00370709 4.11212e-12 6.91361)
(0.00522891 1.33903e-11 7.28646)
(0.00690416 7.72149e-12 7.60652)
(0.00862188 5.07546e-12 7.8817)
(0.0102279 3.12163e-12 8.11365)
(0.0115113 1.05651e-12 8.29951)
(0.0121932 -3.13022e-13 8.43281)
(0.0120599 1.57903e-11 8.50888)
(0.0112635 -1.49077e-12 8.53904)
(0.0101799 -2.95868e-12 8.54732)
(0.00902681 -1.07101e-12 8.54904)
(0.00788641 2.1599e-13 8.54924)
(0.00678178 -3.06731e-12 8.54914)
(0.00570395 -6.33328e-12 8.54898)
(0.00464702 -8.76094e-12 8.54883)
(0.00361148 -9.80884e-12 8.54869)
(0.00259764 -8.97441e-12 8.54857)
(0.00160477 -6.89577e-12 8.54849)
(0.000631995 -4.08782e-12 8.54843)
(-0.000322892 -9.15238e-13 8.54841)
(-0.00125937 2.36184e-12 8.54843)
(-0.00217923 5.3582e-12 8.54848)
(-0.00308334 7.28542e-12 8.54858)
(-0.00397244 7.33096e-12 8.54871)
(-0.0048473 6.27856e-12 8.54889)
(-0.00570866 4.66074e-12 8.54909)
(-0.00655718 2.48942e-12 8.54934)
(-0.00739351 -5.77782e-14 8.54962)
(-0.00821822 -1.42111e-12 8.54994)
(-0.00903186 1.95433e-12 8.5503)
(-0.00983495 7.53011e-12 8.55069)
(-0.010628 -3.06821e-13 8.55111)
(-0.0114114 -4.91365e-12 8.55156)
(-0.0121855 -4.49625e-12 8.55205)
(-0.0129509 -3.9951e-12 8.55256)
(-0.0137077 -4.2757e-12 8.55309)
(-0.0144564 -5.19403e-12 8.55365)
(-0.0151971 -6.29874e-12 8.55423)
(-0.0159303 -7.02112e-12 8.55482)
(-0.016656 -6.76356e-12 8.55542)
(-0.0173743 -4.61682e-12 8.55602)
(-0.0180847 1.25184e-12 8.55662)
(-0.0187868 -6.32992e-12 8.55721)
(-0.0194818 -1.05533e-11 8.55777)
(-0.0201726 -5.15822e-12 8.55817)
(-0.02085 5.5898e-12 8.5579)
(-0.0214736 -4.00408e-12 8.55496)
(-0.021933 -4.71523e-12 8.54297)
(-0.0219627 -4.31377e-12 8.50674)
(-0.0212383 -3.56034e-12 8.42743)
(-0.0196973 -4.08015e-12 8.2976)
(-0.0175442 -5.31657e-12 8.12089)
(-0.0150393 -6.69537e-12 7.9028)
(-0.0124066 -9.72663e-12 7.64703)
(-0.00982204 -6.93224e-12 7.35456)
(-0.00741743 -4.65163e-12 7.02277)
(-0.00528549 -1.53185e-12 6.64352)
(-0.00348651 -3.72051e-12 6.19878)
(-0.00205639 -4.64775e-12 5.64908)
(-0.00100498 -3.33366e-12 4.89714)
(-0.000301618 4.80708e-12 3.66117)
(0.000140209 -9.55203e-12 3.85937)
(0.000505349 -9.61401e-12 5.11905)
(0.00106754 -7.82215e-12 5.87751)
(0.00185862 -3.0892e-12 6.42224)
(0.00287648 1.39549e-12 6.85504)
(0.00409762 4.85353e-12 7.21809)
(0.00547866 5.24932e-12 7.53126)
(0.00695143 4.63583e-12 7.80403)
(0.00841744 3.61505e-12 8.04004)
(0.00974035 2.56882e-12 8.23881)
(0.0107271 2.67674e-12 8.3963)
(0.0111177 8.72789e-12 8.50552)
(0.0107632 5.99136e-13 8.56336)
(0.00988315 -1.9736e-12 8.58396)
(0.00881019 -9.28427e-13 8.58905)
(0.00770299 -4.94047e-13 8.58999)
(0.00661989 -3.17716e-12 8.59005)
(0.00556901 -6.03722e-12 8.58994)
(0.00454017 -8.07661e-12 8.5898)
(0.0035307 -8.85825e-12 8.58968)
(0.00254149 -8.19522e-12 8.58958)
(0.00157251 -6.40369e-12 8.5895)
(0.000623118 -3.86615e-12 8.58945)
(-0.000308787 -9.2854e-13 8.58943)
(-0.00122275 2.06554e-12 8.58945)
(-0.0021205 4.68281e-12 8.58951)
(-0.00300286 6.34532e-12 8.58961)
(-0.00387058 6.64715e-12 8.58974)
(-0.00472441 5.97787e-12 8.58991)
(-0.00556505 4.83034e-12 8.59012)
(-0.00639317 3.63357e-12 8.59037)
(-0.00720938 3.06945e-12 8.59065)
(-0.00801426 6.69628e-12 8.59097)
(-0.00880834 -2.96149e-12 8.59133)
(-0.00959211 6.74016e-12 8.59171)
(-0.0103661 -4.13217e-12 8.59214)
(-0.0111306 -4.73845e-12 8.59259)
(-0.0118861 -4.27072e-12 8.59307)
(-0.012633 -4.11739e-12 8.59357)
(-0.0133716 -4.42349e-12 8.5941)
(-0.0141021 -5.14607e-12 8.59465)
(-0.014825 -6.05535e-12 8.59522)
(-0.0155403 -6.95993e-12 8.59579)
(-0.0162482 -8.16361e-12 8.59637)
(-0.0169484 -1.18078e-11 8.59695)
(-0.0176403 1.69751e-12 8.59752)
(-0.0183245 -1.06147e-11 8.59808)
(-0.0190044 -1.09992e-11 8.59853)
(-0.019675 -1.34753e-11 8.5985)
(-0.0203046 1.19625e-11 8.59645)
(-0.020802 -2.34981e-12 8.58713)
(-0.0209357 -4.31223e-12 8.55726)
(-0.020394 -4.34744e-12 8.48913)
(-0.0190947 -4.33678e-12 8.37525)
(-0.0172206 -4.90029e-12 8.21921)
(-0.0150084 -5.64562e-12 8.02668)
(-0.0126549 -6.08637e-12 7.80168)
(-0.0103115 -5.65716e-12 7.546)
(-0.00809137 -3.82085e-12 7.25889)
(-0.00607508 -6.33931e-12 6.93624)
(-0.00431629 -5.13267e-12 6.56864)
(-0.00284699 -7.09846e-12 6.13702)
(-0.00168386 -5.9175e-12 5.60094)
(-0.000826809 -3.86518e-12 4.86224)
(-0.000250565 -8.45733e-13 3.63801)
(0.000106998 -6.38627e-12 3.84833)
(0.000390582 -6.62746e-12 5.1012)
(0.000830607 -5.15233e-12 5.85107)
(0.00145546 -2.66161e-12 6.38651)
(0.0022686 -5.29175e-14 6.81006)
(0.00325828 2.06631e-12 7.16464)
(0.00439911 3.20607e-12 7.47099)
(0.00564841 3.57315e-12 7.73962)
(0.00694204 3.46223e-12 7.97548)
(0.00818938 3.22957e-12 8.1798)
(0.00926434 3.50675e-12 8.35076)
(0.00997957 5.21504e-12 8.48341)
(0.0100922 1.52735e-12 8.57056)
(0.00954095 -1.00182e-12 8.6121)
(0.00860199 -7.28671e-13 8.62507)
(0.00754683 -7.91094e-13 8.62794)
(0.00648491 -3.23962e-12 8.62839)
(0.00545297 -5.8525e-12 8.62837)
(0.00444783 -7.61424e-12 8.62827)
(0.00346144 -8.21567e-12 8.62816)
(0.00249357 -7.60836e-12 8.62807)
(0.00154494 -5.99969e-12 8.62799)
(0.000615377 -3.68732e-12 8.62795)
(-0.000297045 -9.95353e-13 8.62794)
(-0.00119192 1.71304e-12 8.62796)
(-0.00207091 4.02933e-12 8.62802)
(-0.00293483 5.53358e-12 8.62812)
(-0.00378441 6.00752e-12 8.62826)
(-0.0046204 5.68563e-12 8.62843)
(-0.00544347 4.98414e-12 8.62864)
(-0.00625428 4.33603e-12 8.62889)
(-0.00705344 4.0983e-12 8.62917)
(-0.00784149 3.97634e-12 8.62949)
(-0.00861896 1.47113e-12 8.62985)
(-0.00938634 2.10407e-12 8.63023)
(-0.0101441 -2.17557e-12 8.63065)
(-0.0108926 -3.33876e-12 8.6311)
(-0.0116323 -3.76798e-12 8.63158)
(-0.0123635 -4.02347e-12 8.63208)
(-0.0130866 -4.43351e-12 8.6326)
(-0.0138017 -5.07975e-12 8.63314)
(-0.0145093 -5.87808e-12 8.63369)
(-0.0152094 -6.73657e-12 8.63425)
(-0.0159019 -7.69415e-12 8.63481)
(-0.0165861 -8.579e-12 8.63536)
(-0.0172621 -4.66365e-12 8.63591)
(-0.0179332 -9.58526e-12 8.63639)
(-0.0185982 -1.03712e-11 8.63655)
(-0.0192338 -8.98264e-12 8.63527)
(-0.0197685 5.22533e-12 8.62848)
(-0.020008 -2.05643e-12 8.60493)
(-0.0196522 -4.04869e-12 8.54788)
(-0.0185852 -4.49952e-12 8.44888)
(-0.0169619 -4.81757e-12 8.31107)
(-0.0150026 -5.28009e-12 8.14016)
(-0.0128863 -5.72177e-12 7.94038)
(-0.0107482 -5.95491e-12 7.71404)
(-0.00868905 -5.89045e-12 7.46148)
(-0.00678158 -5.69096e-12 7.18071)
(-0.00507562 -6.04049e-12 6.86664)
(-0.00360242 -5.86809e-12 6.50902)
(-0.00237863 -6.01848e-12 6.08808)
(-0.00141121 -5.3941e-12 5.5628)
(-0.000696066 -4.26619e-12 4.83444)
(-0.000212549 -2.57154e-12 3.61936)
(8.12088e-05 -4.49311e-12 3.8401)
(0.000303196 -4.78028e-12 5.08776)
(0.000651484 -3.86913e-12 5.83095)
(0.0011516 -2.39349e-12 6.35904)
(0.00180947 -7.76826e-13 6.77509)
(0.0026198 6.55465e-13 7.12254)
(0.00356755 1.66416e-12 7.42267)
(0.00462553 2.15582e-12 7.68671)
(0.00575113 2.05308e-12 7.9205)
(0.00688257 1.07537e-12 8.12642)
(0.00793381 -1.91685e-12 8.30421)
(0.00878253 -7.51445e-12 8.45105)
(0.00923673 -3.2417e-12 8.56113)
(0.00908373 -1.398e-12 8.62779)
(0.00837153 -7.09772e-13 8.65542)
(0.00740059 -9.57775e-13 8.66288)
(0.00637058 -3.26197e-12 8.66434)
(0.00535345 -5.726e-12 8.66452)
(0.00436639 -7.28993e-12 8.66447)
(0.00340059 -7.74368e-12 8.66438)
(0.00245185 -7.12673e-12 8.6643)
(0.00152103 -5.60443e-12 8.66424)
(0.000608639 -3.38622e-12 8.6642)
(-0.00028695 -6.61398e-13 8.6642)
(-0.00116533 2.49512e-12 8.66422)
(-0.0020281 6.33515e-12 8.66429)
(-0.00287609 1.15823e-11 8.66439)
(-0.00371 8.22927e-12 8.66452)
(-0.00453056 6.43972e-12 8.6647)
(-0.00533845 5.38549e-12 8.66491)
(-0.0061343 4.78614e-12 8.66516)
(-0.0069187 4.6053e-12 8.66544)
(-0.00769221 4.64766e-12 8.66576)
(-0.00845532 4.73988e-12 8.66611)
(-0.00920853 7.90144e-12 8.6665)
(-0.00995227 -4.40004e-12 8.66692)
(-0.0106869 -4.42199e-12 8.66736)
(-0.0114129 -3.95912e-12 8.66784)
(-0.0121306 -4.0761e-12 8.66833)
(-0.0128402 -4.45177e-12 8.66884)
(-0.013542 -5.01604e-12 8.66937)
(-0.0142363 -5.68694e-12 8.66991)
(-0.014923 -6.35137e-12 8.67045)
(-0.0156015 -6.83132e-12 8.67098)
(-0.0162716 -6.48878e-12 8.67151)
(-0.0169356 -2.77245e-12 8.67201)
(-0.0175954 -1.95236e-11 8.67231)
(-0.0182358 -1.05539e-11 8.67165)
(-0.0188032 -4.84384e-12 8.66705)
(-0.0191429 1.19809e-11 8.64947)
(-0.0189727 -3.95359e-13 8.6032)
(-0.0181328 -3.4181e-12 8.51834)
(-0.0167419 -4.31969e-12 8.39696)
(-0.0150076 -4.70203e-12 8.24479)
(-0.0130988 -4.85415e-12 8.06627)
(-0.0111401 -4.70305e-12 7.86405)
(-0.0092242 -4.08902e-12 7.63915)
(-0.00741858 -2.82443e-12 7.39086)
(-0.0057706 -3.81467e-12 7.11639)
(-0.00431148 -4.20962e-12 6.80995)
(-0.00305944 -4.2853e-12 6.46075)
(-0.00202273 -7.96821e-12 6.04856)
(-0.0012033 -5.2815e-12 5.53198)
(-0.000595655 -1.77943e-12 4.81185)
(-0.000182815 3.77256e-12 3.60408)
(6.04414e-05 -3.24661e-12 3.83398)
(0.000234242 -3.5238e-12 5.07758)
(0.000511479 -2.97632e-12 5.81549)
(0.000915436 -2.06088e-12 6.33769)
(0.00145305 -1.03046e-12 6.74763)
(0.00212264 -7.75812e-14 7.08908)
(0.00291533 6.38351e-13 7.38375)
(0.0038134 9.82916e-13 7.64334)
(0.00478803 8.01523e-13 7.87428)
(0.00579627 -1.60474e-13 8.07975)
(0.00677731 -2.32734e-12 8.26058)
(0.00764703 -5.80702e-12 8.41545)
(0.00827945 -3.65563e-12 8.54061)
(0.00847214 -1.81965e-12 8.62948)
(0.00807401 -8.59307e-13 8.6773)
(0.00724637 -1.11448e-12 8.69402)
(0.00626729 -3.32833e-12 8.69789)
(0.00526874 -6.06389e-12 8.69856)
(0.00429447 -9.1066e-12 8.69861)
(0.00334598 -1.98033e-11 8.69855)
(0.00241476 -8.94381e-12 8.69848)
(0.00149997 -5.91882e-12 8.69843)
(0.000602731 -3.25896e-12 8.69841)
(-0.000278098 -3.45131e-13 8.69841)
(-0.00114202 2.96422e-12 8.69844)
(-0.00199058 6.61957e-12 8.6985)
(-0.0028246 9.74904e-12 8.6986)
(-0.00364478 8.48004e-12 8.69874)
(-0.00445181 6.86434e-12 8.69892)
(-0.00524639 5.70587e-12 8.69913)
(-0.00602912 5.0304e-12 8.69938)
(-0.00680059 4.74295e-12 8.69966)
(-0.00756133 4.64462e-12 8.69998)
(-0.00831186 4.48396e-12 8.70033)
(-0.00905263 3.92937e-12 8.70072)
(-0.00978407 -1.76628e-12 8.70113)
(-0.0105066 -1.30594e-12 8.70158)
(-0.0112205 1.67374e-12 8.70204)
(-0.0119263 -1.96674e-12 8.70253)
(-0.012624 -3.73127e-12 8.70303)
(-0.0133141 -4.72103e-12 8.70355)
(-0.0139966 -5.43214e-12 8.70407)
(-0.0146711 -5.96484e-12 8.70459)
(-0.0153371 -6.19609e-12 8.70511)
(-0.0159957 -5.79839e-12 8.7056)
(-0.0166504 -5.02953e-12 8.70599)
(-0.0172937 -1.53688e-11 8.70579)
(-0.0178871 -9.51062e-12 8.70296)
(-0.0183152 -2.52621e-12 8.69063)
(-0.0183246 7.51962e-12 8.65468)
(-0.0177106 4.64394e-12 8.58342)
(-0.0165414 -1.18282e-12 8.47723)
(-0.0150135 -3.40916e-12 8.3417)
(-0.0132912 -4.46793e-12 8.18152)
(-0.0114934 -5.22038e-12 7.99965)
(-0.00970737 -6.18679e-12 7.79757)
(-0.00799743 -8.19301e-12 7.57537)
(-0.00640941 -5.64015e-12 7.33164)
(-0.00497467 -4.81011e-12 7.06301)
(-0.00371299 -4.56425e-12 6.76321)
(-0.00263492 -4.57031e-12 6.42111)
(-0.00174399 -4.88362e-12 6.01615)
(-0.00103958 -4.11969e-12 5.50666)
(-0.000515881 -2.44054e-12 4.79323)
(-0.000158756 3.17166e-13 3.59141)
(4.32883e-05 -2.3487e-12 3.8295)
(0.000178338 -2.5775e-12 5.06989)
(0.000399095 -2.23569e-12 5.80355)
(0.000727136 -1.64892e-12 6.32097)
(0.00116974 -9.85724e-13 6.72587)
(0.00172728 -3.71594e-13 7.0623)
(0.00239464 8.31464e-14 7.35224)
(0.00316006 2.72289e-13 7.60772)
(0.0040036 8.32475e-14 7.83562)
(0.00489487 -6.03967e-13 8.03965)
(0.00579005 -1.84929e-12 8.22139)
(0.00662819 -3.29606e-12 8.38055)
(0.00732389 -3.05994e-12 8.51494)
(0.00773784 -2.43982e-12 8.61987)
(0.00766503 -3.77826e-12 8.68835)
(0.0070594 -2.11315e-11 8.71971)
(0.00616397 -6.00503e-12 8.72876)
(0.00519477 -6.71997e-12 8.73058)
(0.00423198 -9.75827e-12 8.73084)
(0.00329652 -1.29411e-11 8.73084)
(0.00238113 -9.32469e-12 8.73079)
(0.00148112 -6.15451e-12 8.73076)
(0.000597515 -3.22946e-12 8.73074)
(-0.000270201 -1.97805e-13 8.73074)
(-0.0011213 3.02431e-12 8.73078)
(-0.00195728 6.18355e-12 8.73085)