/*--------------------------------*- C++ -*----------------------------------*\
| =========                 |                                                 |
| \\      /  F ield         | OpenFOAM: The Open Source CFD Toolbox           |
|  \\    /   O peration     | Version:  1.7.0                                 |
|   \\  /    A nd           | Web:      www.OpenFOAM.com                      |
|    \\/     M anipulation  |                                                 |
\*---------------------------------------------------------------------------*/
FoamFile
{
    version     2.0;
    format      ascii;
    class       volScalarField;
    location    "0.252";
    object      k;
}
// * * * * * * * * * * * * * * * * * * * * * * * * * * * * * * * * * * * * * //

dimensions      [0 2 -2 0 0 0 0];

internalField   nonuniform List<scalar> 
14800
(
2.79525
2.79547
2.79562
2.79573
2.79581
2.79589
2.79595
2.79608
2.79624
2.79639
2.7966
2.79682
2.79704
2.7973
2.79762
2.79797
2.79833
2.79867
2.799
2.79938
2.7998
2.80023
2.80068
2.8012
2.80183
2.8026
2.80355
2.80468
2.80605
2.80773
2.80981
2.81237
2.81553
2.81947
2.82436
2.83041
2.8379
2.84716
2.85858
2.87265
2.88993
2.91109
2.93697
2.96849
3.00675
3.05305
3.10892
3.17615
3.25673
3.35288
3.46719
3.60234
3.76146
3.94755
4.16355
4.4129
4.70565
5.11369
5.61088
6.07472
6.46345
6.82907
7.24311
8.15809
8.46011
8.8584
9.32711
9.84682
10.3281
10.78
11.2059
11.6865
12.0387
12.4382
12.7904
13.0712
13.2961
13.4862
13.6676
14.2298
14.3407
14.25
14.2069
14.1557
14.3346
14.6019
15.1665
14.4333
14.7882
13.9323
13.4682
13.2601
14.2715
13.0313
12.7169
12.5936
12.2618
12.2045
11.9189
12.1771
11.882
11.2517
10.9651
13.8845
11.0275
10.2899
10.0397
9.84789
9.6531
9.41824
9.21313
9.00623
10.3285
9.04312
8.44527
8.07519
7.96444
7.82023
7.54073
7.48063
7.1482
6.96797
6.78562
6.63535
6.46388
6.24537
6.10375
5.92107
5.8134
5.73662
5.55148
5.42842
5.29992
5.1294
4.9856
4.80668
4.66725
4.5605
4.4586
4.32902
4.20269
4.09364
3.98309
3.88048
3.79903
3.70509
3.6046
3.53486
3.43373
3.33738
3.25491
3.16479
3.08888
3.00701
2.92816
2.90182
2.81676
2.72311
2.64995
2.57439
2.52097
2.45675
2.38203
2.31641
2.27024
2.27498
2.18534
2.12243
2.06772
2.0245
1.97852
1.93225
1.85723
1.82773
1.78489
1.73257
1.69992
1.65289
1.60994
1.58824
1.52966
1.52353
1.46885
1.42596
1.39679
1.36872
1.32495
1.3077
1.28422
1.25104
1.2438
1.1994
1.15949
1.13489
1.11688
1.08497
1.04907
1.03897
1.01768
0.992984
2.81429
2.8143
2.81434
2.8144
2.81445
2.81451
2.81458
2.81472
2.81489
2.81506
2.81527
2.81553
2.8158
2.8161
2.81646
2.81683
2.81718
2.8175
2.81784
2.81824
2.81868
2.81913
2.81962
2.82018
2.82089
2.82176
2.82284
2.82411
2.82563
2.82751
2.82983
2.83269
2.83623
2.84063
2.84611
2.85289
2.86126
2.87159
2.88428
2.89988
2.91899
2.94234
2.97079
3.00533
3.0471
3.09747
3.15802
3.23063
3.31729
3.42027
3.54212
3.68544
3.85333
4.04866
4.27412
4.53283
4.83355
5.24246
5.73136
6.19168
6.58724
6.96469
7.38553
8.06927
8.55009
8.97748
9.45501
9.96432
10.4437
10.8898
11.309
11.7292
12.1214
12.5163
12.8598
13.1332
13.3533
13.5375
13.7118
14.2309
14.3373
14.26
14.2232
14.1724
14.3081
14.5378
14.9884
14.3622
14.6003
13.8613
13.4631
13.2644
13.4224
13.0126
12.7185
12.5765
12.2607
12.1613
11.9037
12.0859
11.7574
11.2296
10.9502
12.8421
10.7401
10.2825
10.0393
9.84759
9.6513
9.41788
9.21059
8.99131
9.37275
8.95487
8.43286
8.07288
7.95197
7.78318
7.51202
7.37626
7.14383
6.95678
6.77399
6.6264
6.41893
6.241
6.0865
5.91954
5.81003
5.7264
5.54052
5.41469
5.28792
5.11109
4.96717
4.80387
4.6666
4.5538
4.45406
4.32531
4.19903
4.09181
3.98157
3.87829
3.79699
3.69911
3.60176
3.53184
3.43059
3.33424
3.24925
3.16054
3.08227
3.00227
2.9254
2.89786
2.80321
2.71702
2.64786
2.57264
2.51456
2.45158
2.3803
2.31616
2.26762
2.2688
2.17729
2.11844
2.06078
2.01796
1.96872
1.92352
1.85686
1.82169
1.77721
1.73082
1.69543
1.65097
1.60907
1.58314
1.52942
1.50938
1.46552
1.42476
1.39475
1.3662
1.32461
1.3033
1.27769
1.24662
1.23679
1.1937
1.15792
1.13228
1.11261
1.08298
1.049
1.03531
1.01406
0.989697
2.8552
2.85526
2.85527
2.85529
2.85532
2.85536
2.85542
2.85554
2.85571
2.8559
2.85614
2.85647
2.85683
2.85719
2.85755
2.85792
2.85828
2.85866
2.85907
2.85955
2.86006
2.86056
2.86114
2.86183
2.86271
2.86382
2.86516
2.86676
2.86868
2.87104
2.87394
2.87753
2.882
2.88756
2.89446
2.90298
2.91344
2.92627
2.94199
2.96117
2.98453
3.01293
3.04732
3.08882
3.13867
3.19836
3.26961
3.35434
3.45467
3.57291
3.71144
3.8728
4.05988
4.27515
4.52074
4.79899
5.11644
5.52583
6.0004
6.45606
6.86571
7.26499
7.69843
8.2895
8.78884
9.24618
9.7321
10.2278
10.6942
11.1262
11.5309
11.9205
12.3078
12.6845
13.0094
13.2682
13.4768
13.6493
13.8084
14.2456
14.3419
14.288
14.2614
14.2112
14.2805
14.4587
14.7397
14.2722
14.3454
13.7909
13.4684
13.2809
13.2721
13.0019
12.7252
12.5541
12.263
12.1142
11.8887
11.964
11.6175
11.2039
10.9368
11.7512
10.6002
10.2762
10.0395
9.84755
9.65008
9.41774
9.20761
8.98308
8.92599
8.87063
8.41041
8.0688
7.92964
7.73614
7.49243
7.32554
7.13833
6.94741
6.76406
6.61225
6.40515
6.23659
6.0767
5.91877
5.80515
5.70825
5.52683
5.40219
5.27241
5.09748
4.95558
4.80155
4.66607
4.55003
4.44977
4.32229
4.1978
4.09027
3.98062
3.87699
3.79453
3.69496
3.59939
3.52782
3.42687
3.33159
3.24504
3.15783
3.07876
2.99907
2.9235
2.89138
2.79372
2.713
2.64563
2.57143
2.51046
2.44802
2.37929
2.316
2.26577
2.26056
2.17157
2.11486
2.05612
2.01219
1.9625
1.91725
1.85639
1.81759
1.77272
1.72925
1.69189
1.6496
1.60823
1.57952
1.5291
1.50155
1.46294
1.42394
1.39328
1.36426
1.32427
1.3002
1.27331
1.24361
1.23061
1.18979
1.1566
1.13047
1.10956
1.08129
1.04886
1.03276
1.01114
0.987196
2.91755
2.91737
2.91726
2.9172
2.91719
2.91722
2.91728
2.91739
2.91755
2.91774
2.918
2.91837
2.91882
2.91927
2.91969
2.92008
2.92048
2.92092
2.92144
2.92204
2.92267
2.92333
2.92411
2.92507
2.92625
2.92768
2.92945
2.93161
2.93424
2.93747
2.94145
2.94637
2.9525
2.96009
2.96947
2.98098
2.99503
3.01218
3.03307
3.05836
3.08891
3.12575
3.17001
3.22295
3.28603
3.3609
3.44938
3.55348
3.67533
3.81723
3.98142
4.17019
4.38577
4.63004
4.90433
5.20979
5.55038
5.96108
6.42182
6.87481
7.30106
7.72346
8.16884
8.69803
9.18937
9.66058
10.1422
10.6172
11.0619
11.4726
11.8558
12.219
12.5823
12.9305
13.2291
13.4674
13.6588
13.8147
13.9529
14.2922
14.3736
14.3431
14.3249
14.2743
14.2837
14.4024
14.5398
14.2053
14.1463
13.7512
13.4898
13.3092
13.2404
12.9996
12.739
12.5426
12.2733
12.0897
11.8794
11.8486
11.5191
11.1896
10.9339
11.1083
10.5329
10.2735
10.0412
9.84827
9.64958
9.41808
9.20503
8.97896
8.78986
8.79251
8.38327
8.06426
7.90517
7.69954
7.48107
7.30593
7.13282
6.94041
6.75635
6.5981
6.40009
6.23327
6.07225
5.91869
5.79951
5.68773
5.51493
5.39125
5.25629
5.08753
4.94777
4.79987
4.66576
4.54785
4.44587
4.31981
4.19735
4.08919
3.98008
3.87625
3.7919
3.69208
3.59738
3.52313
3.42314
3.3295
3.24203
3.15613
3.07651
2.99697
2.92211
2.88344
2.78734
2.71033
2.64356
2.57051
2.50792
2.44553
2.37866
2.31594
2.26439
2.25113
2.16724
2.11167
2.05309
2.00772
1.95844
1.91293
1.85592
1.81481
1.77008
1.72793
1.68928
1.64849
1.60746
1.57678
1.52876
1.49726
1.461
1.42333
1.39216
1.36275
1.32394
1.29804
1.27043
1.24146
1.22539
1.18706
1.15551
1.12919
1.10734
1.07986
1.0487
1.03089
1.00883
0.985314
3.00013
2.99988
2.99972
2.99966
2.99965
2.9997
2.99979
2.99992
3.00008
3.00031
3.0006
3.00099
3.00152
3.00208
3.00261
3.00309
3.00356
3.00408
3.0047
3.00543
3.00627
3.00722
3.00833
3.0097
3.01137
3.01337
3.01582
3.01888
3.02264
3.02732
3.03309
3.04023
3.04907
3.05997
3.0733
3.08956
3.10932
3.13326
3.16215
3.1969
3.23852
3.28821
3.34734
3.41736
3.49994
3.59686
3.71006
3.8415
3.99328
4.16744
4.36588
4.59035
4.84215
5.12229
5.43098
5.76795
6.13467
6.54993
7.00136
7.45345
7.89268
8.33102
8.78176
9.26958
9.74301
10.2066
10.6685
11.1144
11.5302
11.9135
12.2688
12.6019
12.9314
13.2438
13.5104
13.7229
13.8925
14.0276
14.1412
14.3843
14.447
14.4324
14.4168
14.3636
14.3296
14.3876
14.4257
14.1788
14.0411
13.7515
13.5287
13.3495
13.237
13.0089
12.7618
12.5483
12.2935
12.089
11.8793
11.7634
11.4674
11.1885
10.9405
10.8396
10.5079
10.2746
10.0446
9.85015
9.64996
9.41915
9.20332
8.9768
8.75363
8.72031
8.35603
8.06054
7.88436
7.67712
7.47528
7.29818
7.12762
6.93526
6.75085
6.58679
6.39803
6.23161
6.07112
5.9192
5.7939
5.66919
5.50605
5.38144
5.24174
5.08006
4.94211
4.79868
4.66572
4.5466
4.44234
4.31783
4.19725
4.08855
3.97984
3.87588
3.78929
3.68992
3.59562
3.51815
3.41968
3.32771
3.23987
3.15498
3.07494
2.99558
2.92101
2.87509
2.78288
2.70846
2.64175
2.56979
2.50629
2.44376
2.37825
2.31594
2.26329
2.24147
2.16373
2.10886
2.05105
2.00436
1.95556
1.90987
1.85549
1.81284
1.76842
1.72682
1.68739
1.64752
1.60677
1.57454
1.52842
1.49478
1.45957
1.42285
1.39125
1.36149
1.32363
1.29645
1.26841
1.23981
1.22107
1.185
1.15457
1.1282
1.10561
1.07864
1.04851
1.02941
1.00696
0.983858
3.10258
3.10241
3.10232
3.1023
3.10234
3.10243
3.10257
3.10274
3.10295
3.10322
3.10356
3.10401
3.1046
3.10524
3.10585
3.10645
3.1071
3.10779
3.10858
3.10954
3.1107
3.11208
3.11369
3.11568
3.1181
3.12105
3.12468
3.1292
3.13483
3.14185
3.15051
3.16116
3.17426
3.19032
3.20982
3.23343
3.26191
3.29609
3.33698
3.3857
3.4435
3.51181
3.59216
3.68623
3.79584
3.92282
4.06902
4.23621
4.42619
4.64044
4.88022
5.14634
5.43906
5.75815
6.1026
6.47084
6.86243
7.28507
7.7313
8.18117
8.62525
9.06775
9.51368
9.97071
10.4189
10.8584
11.2888
11.6989
12.0798
12.4305
12.7529
13.0512
13.3413
13.613
13.8435
14.0261
14.1699
14.281
14.3681
14.5276
14.5688
14.559
14.5384
14.4789
14.4157
14.4185
14.3925
14.1936
14.0201
13.7875
13.5839
13.4015
13.2537
13.0319
12.7942
12.5704
12.3232
12.1056
11.8893
11.7157
11.4501
11.1978
10.9538
10.7563
10.5049
10.2792
10.0503
9.85358
9.65149
9.42122
9.2028
8.97599
8.74386
8.65775
8.33239
8.05862
7.87012
7.66589
7.4731
7.29492
7.1231
6.93165
6.74749
6.57927
6.39771
6.23163
6.07191
5.92025
5.78902
5.65494
5.4999
5.37274
5.22983
5.07443
4.93791
4.79789
4.66599
4.54598
4.43926
4.31633
4.19739
4.08829
3.97986
3.8758
3.78687
3.68823
3.59407
3.5133
3.41667
3.32612
3.23832
3.15415
3.07386
2.9947
2.92011
2.86721
2.77967
2.70709
2.64023
2.56924
2.50519
2.4425
2.37797
2.31599
2.26237
2.23245
2.16079
2.10643
2.04962
2.00187
1.95338
1.90762
1.8551
1.81141
1.76731
1.72592
1.68605
1.64666
1.60614
1.57263
1.52809
1.49325
1.45851
1.42244
1.39049
1.36039
1.32333
1.29521
1.2669
1.23846
1.21754
1.18335
1.15374
1.12738
1.10421
1.07761
1.0483
1.02819
1.00543
0.982709
3.22494
3.2248
3.22472
3.22472
3.2248
3.22494
3.22515
3.22538
3.22565
3.22603
3.22655
3.22716
3.2278
3.22844
3.22912
3.22985
3.23068
3.23161
3.23268
3.234
3.23563
3.23766
3.2401
3.24308
3.2467
3.2512
3.25682
3.26382
3.27252
3.28328
3.29651
3.31267
3.33237
3.35628
3.38516
3.41985
3.4613
3.5106
3.56894
3.63771
3.71842
3.81267
3.92213
4.04853
4.19364
4.35916
4.5466
4.75729
4.99222
5.25203
5.53701
5.84677
6.18032
6.53629
6.91279
7.30743
7.71795
8.1466
8.58805
9.0314
9.47002
9.90428
10.3348
10.7627
11.1802
11.5858
11.9775
12.3475
12.6894
13.003
13.2886
13.5492
13.7971
14.0255
14.2173
14.3673
14.4825
14.5672
14.6271
14.7191
14.7368
14.7207
14.6881
14.6183
14.5339
14.4904
14.4209
14.2435
14.0574
13.8503
13.6529
13.464
13.2892
13.0689
12.8359
12.6057
12.3613
12.1341
11.9092
11.7012
11.4549
11.2147
10.972
10.7435
10.5127
10.287
10.0584
9.8589
9.65448
9.42453
9.20373
8.97651
8.74165
8.60817
8.31462
8.05908
7.86279
7.66202
7.47333
7.29387
7.11962
6.9295
6.74615
6.57537
6.39878
6.23308
6.07385
5.92182
5.78534
5.64537
5.49585
5.36537
5.22079
5.07032
4.93488
4.79749
4.66655
4.54586
4.43673
4.31532
4.19774
4.08834
3.98012
3.87596
3.7848
3.68689
3.59277
3.50895
3.41419
3.32472
3.23721
3.15355
3.07314
2.99418
2.91939
2.86043
2.77732
2.70608
2.639
2.56885
2.50443
2.44163
2.3778
2.31609
2.26164
2.22469
2.15835
2.10441
2.04857
2.00002
1.95169
1.90591
1.85474
1.81036
1.76654
1.7252
1.68508
1.64589
1.60559
1.571
1.52778
1.49227
1.45771
1.42208
1.38986
1.35941
1.32305
1.29422
1.26572
1.23731
1.21466
1.182
1.153
1.12666
1.10304
1.07674
1.04809
1.02715
1.00416
0.981789
3.36668
3.3664
3.36625
3.36624
3.36634
3.36654
3.36683
3.36717
3.36755
3.36808
3.36877
3.3695
3.37018
3.3709
3.37174
3.3727
3.3738
3.37513
3.37671
3.37863
3.38101
3.38401
3.38775
3.39236
3.39807
3.40519
3.41406
3.42503
3.43861
3.45531
3.47569
3.50043
3.53026
3.5661
3.609
3.66003
3.72037
3.79133
3.87434
3.97102
4.083
4.2119
4.35939
4.52698
4.71601
4.9277
5.16291
5.42221
5.70537
6.0119
6.34092
6.691
7.05997
7.44572
7.84583
8.25765
8.67779
9.10609
9.53852
9.96852
10.3919
10.8072
11.2134
11.6096
11.992
12.359
12.7085
13.0361
13.3369
13.6106
13.8571
14.0781
14.2832
14.4681
14.6202
14.736
14.8209
14.8778
14.9101
14.9497
14.9426
14.9116
14.8618
14.7781
14.6755
14.5945
14.4926
14.3209
14.1306
13.9316
13.7328
13.5356
13.3407
13.1182
12.8859
12.651
12.4062
12.1711
11.9382
11.7112
11.4738
11.2374
10.9941
10.755
10.5261
10.2979
10.0691
9.86631
9.65916
9.42928
9.20629
8.97848
8.74269
8.57284
8.30357
8.06208
7.86131
7.66275
7.47538
7.29437
7.11752
6.92885
6.7466
6.57445
6.40103
6.23564
6.07656
5.92392
5.78309
5.63977
5.49336
5.3595
5.21437
5.06751
4.93287
4.79749
4.66741
4.54619
4.43481
4.31477
4.1983
4.08868
3.9806
3.87634
3.78316
3.68588
3.59173
3.50533
3.41226
3.32357
3.23644
3.15315
3.07273
2.99392
2.91886
2.85504
2.77564
2.70533
2.63806
2.5686
2.50393
2.44104
2.37772
2.31624
2.26107
2.21848
2.15637
2.10276
2.04777
1.99865
1.95036
1.90458
1.85443
1.8096
1.76598
1.72462
1.68436
1.64521
1.6051
1.56962
1.5275
1.4916
1.45711
1.42177
1.38932
1.35854
1.32279
1.29342
1.26477
1.23632
1.21233
1.18085
1.15233
1.12603
1.10204
1.07599
1.04788
1.02625
1.00311
0.981044
3.52654
3.52609
3.52588
3.52587
3.52603
3.52631
3.52671
3.52723
3.52785
3.52848
3.52913
3.52986
3.53064
3.53158
3.53277
3.53417
3.53581
3.53783
3.54032
3.54332
3.54702
3.55169
3.55757
3.56491
3.57412
3.58556
3.5997
3.6171
3.63841
3.66436
3.69578
3.73358
3.77873
3.83239
3.89585
3.97042
4.05749
4.15859
4.2753
4.40923
4.5619
4.73464
4.92871
5.14513
5.3845
5.64702
5.93256
6.24065
6.56981
6.91852
7.2848
7.66648
8.06086
8.46529
8.87718
9.29403
9.71267
10.1316
10.5477
10.9569
11.3565
11.7445
12.1195
12.4805
12.8248
13.1507
13.4571
13.7415
14.0006
14.2334
14.4401
14.6213
14.7843
14.9269
15.04
15.1214
15.1754
15.2038
15.2085
15.2073
15.1749
15.1239
15.0535
14.9534
14.8333
14.722
14.5936
14.4189
14.2252
14.0253
13.821
13.6146
13.4044
13.1772
12.9428
12.7034
12.4564
12.2147
11.9746
11.7372
11.5015
11.2645
11.0194
10.7755
10.5434
10.3121
10.0825
9.87594
9.66571
9.43561
9.21057
8.98202
8.74605
8.5509
8.29893
8.06745
7.8642
7.66647
7.47892
7.29626
7.11698
6.92969
6.7486
6.57581
6.40425
6.23904
6.07985
5.92651
5.78226
5.63712
5.49207
5.3552
5.21018
5.06584
4.93174
4.79788
4.66854
4.54691
4.43357
4.31468
4.19908
4.08927
3.98129
3.87695
3.78201
3.68519
3.59098
3.50255
3.41085
3.32268
3.23595
3.15294
3.07256
2.99388
2.91852
2.85107
2.7745
2.7048
2.63736
2.56847
2.50362
2.44067
2.37772
2.31644
2.26066
2.21383
2.15481
2.10145
2.04717
1.99763
1.94933
1.90352
1.85416
1.80905
1.76557
1.72416
1.68381
1.64462
1.60467
1.56847
1.52727
1.49114
1.45664
1.4215
1.38887
1.35775
1.32255
1.29276
1.26398
1.23546
1.21043
1.17988
1.15173
1.12547
1.10118
1.07534
1.04766
1.02548
1.00224
0.980433
3.70306
3.70259
3.70243
3.70252
3.70278
3.70319
3.70374
3.70444
3.70531
3.70617
3.707
3.70784
3.70879
3.71005
3.71173
3.71382
3.71635
3.71949
3.7234
3.72822
3.73425
3.74187
3.75147
3.76349
3.77846
3.79695
3.81964
3.84729
3.88076
3.92104
3.96927
4.02664
4.0944
4.17391
4.26661
4.37398
4.49754
4.63879
4.79914
4.97987
5.18205
5.40628
5.65304
5.92238
6.2139
6.52663
6.85919
7.20998
7.57676
7.95727
8.34901
8.74942
9.1558
9.56549
9.97624
10.3856
10.791
11.1908
11.5827
11.9641
12.3332
12.6878
13.0269
13.3494
13.6537
13.9379
14.2015
14.4431
14.6609
14.8533
15.0207
15.1635
15.2863
15.3887
15.4646
15.5127
15.5361
15.5362
15.514
15.4795
15.4221
15.3487
15.2566
15.1387
15.0013
14.8646
14.7137
14.5314
14.3325
14.1271
13.9152
13.6991
13.4767
13.2435
13.0048
12.7609
12.5107
12.2631
12.0169
11.7729
11.535
11.295
11.0475
10.8002
10.5639
10.3293
10.0984
9.88774
9.67417
9.44357
9.21661
8.98718
8.7514
8.54013
8.29971
8.07488
7.87015
7.67226
7.48377
7.29947
7.11807
6.93196
6.75187
6.57882
6.40828
6.24309
6.08363
5.92957
5.78271
5.6365
5.49173
5.35241
5.20778
5.06517
4.93141
4.79867
4.66995
4.54797
4.433
4.315
4.20006
4.09009
3.98217
3.87776
3.78136
3.68484
3.59054
3.50061
3.40993
3.32208
3.23572
3.15293
3.0726
2.994
2.91837
2.84838
2.7738
2.70445
2.63689
2.56845
2.50348
2.44048
2.37779
2.31668
2.26041
2.21055
2.15362
2.10044
2.04671
1.99689
1.94854
1.90267
1.85394
1.80867
1.76527
1.72381
1.68338
1.64412
1.60429
1.56752
1.52708
1.49082
1.45628
1.42128
1.38848
1.35707
1.32234
1.29222
1.26331
1.23471
1.20889
1.17904
1.15118
1.12496
1.10043
1.07476
1.04746
1.02482
1.00152
0.979928
3.89532
3.89494
3.89488
3.89509
3.89549
3.89606
3.89678
3.89763
3.89863
3.89977
3.90096
3.90221
3.90376
3.90573
3.90822
3.91139
3.91542
3.92044
3.92676
3.93474
3.94487
3.9576
3.97357
3.99342
4.01787
4.04776
4.08402
4.12769
4.17992
4.24201
4.31531
4.40124
4.50127
4.61684
4.74945
4.90045
5.07108
5.26246
5.4754
5.71035
5.96751
6.24651
6.5467
6.86693
7.20563
7.5609
7.93052
8.31199
8.70294
9.10074
9.50294
9.90723
10.3111
10.7124
11.1093
11.4997
11.8817
12.2536
12.6144
12.962
13.2952
13.6125
13.9129
14.1953
14.4585
14.7014
14.9235
15.1238
15.3013
15.4549
15.5847
15.6907
15.7762
15.8415
15.8828
15.8994
15.8935
15.8663
15.8184
15.7556
15.6742
15.578
15.4644
15.3281
15.1737
15.0155
14.8451
14.6529
14.4466
14.2334
14.0129
13.7871
13.5545
13.3145
13.0705
12.8217
12.5678
12.3149
12.0633
11.8143
11.5722
11.3281
11.0778
10.8276
10.5869
10.3491
10.1165
9.90158
9.68449
9.45311
9.22432
8.99394
8.75853
8.53781
8.30468
8.08395
7.87818
7.67958
7.48979
7.30389
7.12073
6.93553
6.7562
6.58301
6.41293
6.24765
6.08781
5.93305
5.78424
5.63723
5.49218
5.35095
5.20679
5.06535
4.93176
4.79984
4.67161
4.54935
4.43307
4.31571
4.20124
4.09113
3.98324
3.87875
3.78117
3.68479
3.5904
3.49943
3.40943
3.32177
3.23572
3.15309
3.07282
2.99427
2.9184
2.84674
2.77346
2.70428
2.63661
2.56854
2.50348
2.44042
2.37794
2.31697
2.26029
2.20837
2.15273
2.09967
2.04638
1.99636
1.94796
1.90199
1.85376
1.80841
1.76506
1.72353
1.68303
1.64369
1.60398
1.56677
1.52693
1.4906
1.45599
1.4211
1.38816
1.35647
1.32215
1.29179
1.26275
1.23405
1.20763
1.17832
1.15069
1.12449
1.09977
1.07425
1.04726
1.02425
1.00092
0.979507
4.10254
4.10209
4.10208
4.10239
4.10293
4.10368
4.10462
4.10567
4.1068
4.10813
4.10982
4.11187
4.11448
4.11766
4.12164
4.12684
4.13356
4.14205
4.15282
4.1665
4.18377
4.20531
4.23197
4.26467
4.30441
4.35236
4.40976
4.47793
4.55832
4.65242
4.76171
4.88765
5.03164
5.19496
5.37871
5.58364
5.8103
6.05893
6.32922
6.62046
6.93163
7.26142
7.60802
7.96934
8.34314
8.72697
9.11815
9.51421
9.91305
10.3121
10.7094
11.1028
11.4906
11.871
12.2429
12.6046
12.955
13.2928
13.6171
13.9267
14.2209
14.4984
14.7587
15.0006
15.2232
15.426
15.6084
15.7694
15.9088
16.0258
16.12
16.1918
16.2432
16.275
16.2847
16.2722
16.2387
16.1859
16.114
16.0264
15.9227
15.8047
15.6705
15.5163
15.3458
15.1688
14.9815
14.7783
14.5634
14.3413
14.1119
13.8767
13.635
13.388
13.1382
12.8844
12.6263
12.3687
12.1123
11.8588
11.6117
11.3631
11.1098
10.8568
10.612
10.3712
10.1365
9.91719
9.69649
9.46411
9.23357
9.00219
8.76719
8.54139
8.31265
8.09427
7.88762
7.68805
7.49681
7.30941
7.12479
6.94022
6.76137
6.58803
6.41809
6.25261
6.09234
5.93689
5.7866
5.63888
5.49327
5.35065
5.20689
5.06626
4.93271
4.80135
4.67349
4.551
4.43368
4.31676
4.2026
4.09235
3.98448
3.87992
3.78141
3.68504
3.59053
3.49888
3.40929
3.32172
3.23593
3.15342
3.07319
2.99467
2.9186
2.84587
2.77338
2.70425
2.6365
2.56872
2.5036
2.44049
2.37815
2.31731
2.2603
2.207
2.15211
2.09911
2.04615
1.996
1.94754
1.90147
1.85363
1.80826
1.76492
1.72332
1.68276
1.64334
1.60372
1.56618
1.52683
1.49046
1.45578
1.42095
1.3879
1.35597
1.322
1.29144
1.26227
1.23348
1.2066
1.17769
1.15025
1.12408
1.0992
1.07378
1.04706
1.02376
1.00042
0.979155
4.32305
4.32246
4.3225
4.32298
4.32373
4.32475
4.32601
4.32745
4.32902
4.33092
4.33346
4.33674
4.34094
4.34626
4.35318
4.3622
4.37385
4.38869
4.40752
4.43117
4.46058
4.49683
4.54105
4.59445
4.65837
4.73427
4.82363
4.92799
5.04893
5.18785
5.34604
5.52455
5.72426
5.94578
6.18917
6.4542
6.7403
7.04644
7.37098
7.71219
8.06787
8.43609
8.81464
9.20073
9.59222
9.98677
10.3816
10.7748
11.165
11.5501
11.9282
12.2978
12.6582
13.0079
13.3462
13.6722
13.9852
14.2844
14.569
14.8384
15.0921
15.3293
15.5492
15.7513
15.9348
16.0992
16.2441
16.3687
16.4728
16.5559
16.6173
16.6579
16.6786
16.6804
16.6617
16.6227
16.5644
16.4881
16.3942
16.2849
16.1606
16.0226
15.8695
15.6986
15.513
15.3199
15.1176
14.9034
14.6793
14.448
14.2097
13.9658
13.7159
13.462
13.2063
12.9474
12.6852
12.4231
12.1622
11.9045
11.6522
11.3992
11.1427
10.8871
10.6387
10.3949
10.158
9.93421
9.70991
9.47635
9.24416
9.01176
8.77711
8.54884
8.32264
8.10547
7.89798
7.69737
7.50465
7.31587
7.13004
6.94583
6.76718
6.59364
6.42363
6.25789
6.09715
5.94105
5.7896
5.64117
5.49493
5.35128
5.20785
5.06775
4.93415
4.80317
4.67558
4.55288
4.43477
4.31809
4.20413
4.09374
3.98586
3.88124
3.78201
3.68554
3.59092
3.49884
3.40946
3.32192
3.23633
3.1539
3.07368
2.99517
2.91894
2.84558
2.77353
2.70436
2.63654
2.56898
2.50382
2.44065
2.37843
2.3177
2.26041
2.2062
2.1517
2.09872
2.04602
1.99578
1.94726
1.90107
1.85355
1.80818
1.76484
1.72318
1.68255
1.64305
1.60351
1.56574
1.52677
1.49038
1.45561
1.42084
1.38768
1.35555
1.32187
1.29116
1.26187
1.23298
1.20576
1.17716
1.14986
1.1237
1.0987
1.07336
1.04688
1.02335
1.00001
0.978859
4.55514
4.55455
4.55481
4.55558
4.55668
4.5581
4.55986
4.56197
4.56449
4.56767
4.57175
4.57723
4.58455
4.59425
4.60688
4.62305
4.64371
4.66992
4.70271
4.74328
4.79294
4.85311
4.92541
5.01124
5.11208
5.22949
5.36496
5.51987
5.69542
5.89248
6.11164
6.35292
6.61606
6.90038
7.20465
7.52748
7.86703
8.22106
8.58714
8.96288
9.34586
9.73383
10.1248
10.5162
10.906
11.2924
11.6735
12.0479
12.4147
12.7725
13.1199
13.4561
13.7808
14.0932
14.3926
14.6787
14.951
15.2092
15.4528
15.6815
15.8949
16.0922
16.2729
16.4368
16.5832
16.7117
16.822
16.9131
16.985
17.0373
17.0693
17.0818
17.0753
17.0506
17.007
16.9445
16.8642
16.7671
16.6536
16.5251
16.3824
16.2266
16.0566
15.8706
15.6715
15.4645
15.2491
15.0243
14.791
14.5509
14.3043
14.0522
13.795
13.5347
13.2731
13.0093
12.743
12.4768
12.2119
11.95
11.6929
11.4355
11.1761
10.9179
10.6661
10.4197
10.1802
9.9522
9.72441
9.48954
9.25579
9.02238
8.788
8.55869
8.33388
8.1172
7.90892
7.70726
7.51311
7.32306
7.13622
6.95213
6.77347
6.59964
6.42943
6.26338
6.10216
5.94543
5.79306
5.64393
5.49704
5.35265
5.20946
5.06973
4.93601
4.80525
4.67784
4.55494
4.43623
4.31965
4.20579
4.09528
3.98738
3.8827
3.78291
3.68627
3.59154
3.4992
3.40987
3.32233
3.2369
3.15451
3.07429
2.99576
2.91941
2.84567
2.77383
2.70458
2.63671
2.56931
2.50413
2.4409
2.37877
2.31813
2.26062
2.20581
2.15146
2.09848
2.04598
1.99568
1.9471
1.90078
1.85352
1.80818
1.76482
1.72308
1.68239
1.64283
1.60336
1.56541
1.52676
1.49035
1.4555
1.42077
1.38751
1.35521
1.32177
1.29094
1.26153
1.23256
1.20507
1.1767
1.1495
1.12337
1.09826
1.07298
1.04672
1.023
0.999667
0.978609
4.79788
4.79749
4.79811
4.79929
4.80085
4.80287
4.80543
4.80869
4.813
4.81868
4.82614
4.83616
4.84957
4.8674
4.89054
4.92002
4.95716
5.00339
5.06012
5.12899
5.21171
5.30988
5.42518
5.55913
5.71304
5.88799
6.08498
6.30455
6.54671
6.81106
7.09698
7.40321
7.72801
8.06921
8.42447
8.7914
9.16755
9.55023
9.93712
10.3258
10.7143
11.1008
11.4833
11.8604
12.2305
12.5925
12.9454
13.2883
13.6206
13.9415
14.2502
14.5467
14.8306
15.1018
15.3597
15.604
15.8348
16.0519
16.2549
16.4439
16.6182
16.7775
16.9213
17.0495
17.1615
17.2571
17.3356
17.3965
17.4396
17.4644
17.4704
17.4582
17.4281
17.3805
17.3153
17.2326
17.1332
17.0179
16.8873
16.7423
16.5836
16.4124
16.2278
16.0288
15.8178
15.5989
15.3724
15.1378
14.8959
14.6477
14.3934
14.1341
13.8704
13.6043
13.3373
13.0687
12.7985
12.5286
12.26
11.9943
11.7326
11.4712
11.209
10.9484
10.6937
10.4447
10.2027
9.97068
9.73958
9.50335
9.26813
9.03377
8.79954
8.56987
8.34578
8.12917
7.92011
7.71748
7.52197
7.33077
7.14308
6.95891
6.78007
6.60589
6.4354
6.26901
6.10731
5.94998
5.79682
5.64701
5.49953
5.3546
5.21156
5.07207
4.93821
4.80755
4.68024
4.55716
4.43798
4.3214
4.20757
4.09693
3.989
3.88426
3.78405
3.6872
3.59235
3.49985
3.41049
3.32293
3.23761
3.15524
3.07499
2.99644
2.92
2.84603
2.77427
2.70492
2.63698
2.56972
2.50451
2.44124
2.37917
2.3186
2.26091
2.20568
2.15137
2.09836
2.04601
1.99567
1.94705
1.90059
1.85354
1.80823
1.76485
1.72304
1.68229
1.64267
1.60325
1.56518
1.52677
1.49036
1.45543
1.42073
1.38738
1.35494
1.3217
1.29077
1.26124
1.23219
1.2045
1.1763
1.14919
1.12307
1.09788
1.07264
1.04657
1.02271
0.999387
0.9784
5.0505
5.05035
5.05145
5.05318
5.05545
5.0585
5.06259
5.06816
5.07591
5.08651
5.10094
5.12034
5.14592
5.17921
5.22175
5.27525
5.3414
5.42182
5.51837
5.63276
5.76666
5.92151
6.09836
6.29814
6.52146
6.76818
7.0378
7.32935
7.64115
7.97118
8.31724
8.67711
9.0482
9.42747
9.81214
10.1997
10.5878
10.9744
11.3578
11.7365
12.1089
12.4738
12.8299
13.1764
13.5129
13.8386
14.1529
14.4555
14.7462
15.0247
15.2908
15.5443
15.7854
16.014
16.2301
16.4333
16.6235
16.8009
16.9652
17.1165
17.2542
17.3783
17.4883
17.584
17.6648
17.7307
17.7809
17.815
17.8326
17.8335
17.8168
17.7832
17.733
17.666
17.5827
17.4829
17.3674
17.2368
17.0918
16.9329
16.7609
16.5767
16.3798
16.1698
15.9488
15.7201
15.4841
15.2412
14.9916
14.7361
14.4752
14.2097
13.9403
13.6691
13.3973
13.1245
12.8507
12.5774
12.3055
12.0362
11.7705
11.5056
11.2407
10.978
10.7207
10.4693
10.2248
9.98915
9.75498
9.51736
9.2808
9.04556
8.81139
8.58165
8.35786
8.14109
7.93131
7.72776
7.53102
7.33878
7.15034
6.96597
6.78683
6.61225
6.44144
6.27469
6.1125
5.95462
5.80077
5.65032
5.50231
5.35697
5.21403
5.07469
4.94066
4.81002
4.68275
4.55948
4.43994
4.32329
4.20943
4.09868
3.9907
3.88591
3.78537
3.68828
3.59331
3.50071
3.41127
3.32369
3.23845
3.15606
3.07578
2.99719
2.92067
2.84657
2.77481
2.70534
2.63735
2.57018
2.50495
2.44163
2.37961
2.31911
2.26127
2.20574
2.15139
2.09835
2.04612
1.99574
1.94707
1.90049
1.8536
1.80833
1.76492
1.72304
1.68224
1.64256
1.60319
1.56503
1.52683
1.4904
1.4554
1.42071
1.3873
1.35474
1.32166
1.29064
1.261
1.23189
1.20403
1.17596
1.14892
1.1228
1.09754
1.07233
1.04643
1.02246
0.999159
0.978226
5.31162
5.31183
5.3137
5.31643
5.32014
5.32541
5.33289
5.34353
5.35863
5.37961
5.40818
5.44615
5.49541
5.55795
5.63581
5.73118
5.84604
5.98194
6.14027
6.32224
6.52858
6.75961
7.01494
7.29399
7.59544
7.91739
8.25743
8.61293
8.98098
9.35867
9.74285
10.1314
10.5215
10.9107
11.2965
11.6772
12.0513
12.4178
12.7757
13.1243
13.4629
13.7906
14.1072
14.4126
14.7066
14.9885
15.2584
15.5164
15.7624
15.9966
16.2191
16.4296
16.6283
16.8155
16.9914
17.1556
17.3078
17.4483
17.5769
17.6935
17.798
17.8904
17.9701
18.0368
18.0902
18.1298
18.1553
18.1662
18.1619
18.1421
18.1063
18.0545
17.9876
17.9048
17.8065
17.6927
17.5641
17.4211
17.2643
17.0943
16.9114
16.7168
16.51
16.2911
16.062
15.8252
15.5818
15.3319
15.0758
14.8144
14.5479
14.2773
14.0031
13.7276
13.4516
13.1752
12.8983
12.6221
12.3473
12.0749
11.8057
11.5377
11.2705
11.0059
10.7464
10.4929
10.2461
10.0071
9.77014
9.53115
9.29341
9.05738
8.82319
8.59348
8.36976
8.15271
7.94226
7.73789
7.54003
7.34686
7.15777
6.9731
6.79358
6.61858
6.44743
6.28031
6.11767
5.95926
5.80481
5.65377
5.50529
5.35964
5.21674
5.0775
4.94328
4.8126
4.68531
4.56187
4.44203
4.32527
4.21136
4.1005
3.99247
3.88762
3.78682
3.68949
3.59441
3.50173
3.41218
3.32458
3.23938
3.15696
3.07662
2.998
2.92142
2.84722
2.77542
2.70584
2.63779
2.57069
2.50545
2.44209
2.38011
2.31965
2.26169
2.20593
2.15151
2.09843
2.04628
1.99588
1.94717
1.90046
1.8537
1.80846
1.76503
1.72308
1.68223
1.6425
1.60317
1.56496
1.52691
1.49048
1.45541
1.42073
1.38724
1.35459
1.32164
1.29056
1.26081
1.23163
1.20365
1.17567
1.14868
1.12257
1.09725
1.07205
1.04631
1.02226
0.998974
0.978081
5.58013
5.58105
5.58446
5.5894
5.59651
5.60711
5.62262
5.64491
5.67645
5.71966
5.77698
5.8511
5.94443
6.05933
6.1979
6.36177
6.55222
6.76973
7.01394
7.28403
7.57863
7.89585
8.23324
8.58803
8.95711
9.33718
9.7249
10.1171
10.511
10.9041
11.2939
11.6785
12.0562
12.4257
12.7854
13.1348
13.4732
13.8011
14.1173
14.4222
14.7151
14.9968
15.2669
15.5257
15.773
16.0086
16.2328
16.4458
16.6476
16.8386
17.0191
17.1887
17.3479
17.4968
17.6355
17.7638
17.8818
17.9891
18.0857
18.1717
18.247
18.3116
18.3648
18.4064
18.436
18.4532
18.4576
18.4489
18.4262
18.3892
18.3376
18.2712
18.1905
18.095
17.9849
17.8601
17.7213
17.5687
17.4029
17.2243
17.0331
16.8305
16.6162
16.3906
16.1554
15.9125
15.6633
15.4079
15.1469
14.8807
14.6099
14.3353
14.0574
13.7785
13.4992
13.2198
12.9403
12.6617
12.3844
12.1095
11.8373
11.5668
11.2977
11.0315
10.7702
10.5148
10.2659
10.0239
9.78456
9.54431
9.30554
9.06885
8.8346
8.60492
8.38116
8.16378
7.95273
7.74762
7.54879
7.35481
7.16513
6.98013
6.8002
6.62478
6.45328
6.28581
6.12273
5.96383
5.80885
5.65727
5.50839
5.36249
5.2196
5.08041
4.946
4.81524
4.6879
4.56429
4.4442
4.3273
4.21331
4.10235
3.99428
3.88937
3.78835
3.69079
3.5956
3.50287
3.4132
3.32556
3.24039
3.15792
3.07752
2.99886
2.92222
2.84796
2.7761
2.70641
2.6383
2.57125
2.506
2.44259
2.38063
2.32022
2.26216
2.20622
2.15171
2.09859
2.0465
1.99608
1.94733
1.9005
1.85384
1.80864
1.76518
1.72316
1.68226
1.64249
1.60319
1.56494
1.52702
1.49058
1.45544
1.42077
1.38722
1.35448
1.32165
1.2905
1.26066
1.23143
1.20334
1.17543
1.14847
1.12236
1.09699
1.07181
1.0462
1.0221
0.998826
0.977963
5.85592
5.85896
5.86593
5.87621
5.89184
5.91562
5.95043
5.9997
6.06714
6.1565
6.27031
6.41112
6.58136
6.78254
7.01498
7.27786
7.56958
7.88783
8.22942
8.59045
8.9669
9.35502
9.75104
10.1514
10.5531
10.9531
11.3488
11.7381
12.1195
12.4917
12.8539
13.2044
13.543
13.8694
14.1836
14.4854
14.775
15.0528
15.3187
15.573
15.8164
16.0492
16.2715
16.4832
16.6842
16.8749
17.0554
17.226
17.3868
17.5382
17.6804
17.8132
17.9369
18.052
18.1576
18.2544
18.3423
18.4209
18.49
18.5498
18.6002
18.6412
18.672
18.6924
18.7021
18.7007
18.6878
18.663
18.6253
18.5746
18.5104
18.4328
18.3413
18.2361
18.117
17.9842
17.838
17.6785
17.5063
17.3215
17.1246
16.9164
16.697
16.4668
16.2273
15.9802
15.727
15.4679
15.2032
14.9337
14.6598