/*--------------------------------*- C++ -*----------------------------------*\
| =========                 |                                                 |
| \\      /  F ield         | OpenFOAM: The Open Source CFD Toolbox           |
|  \\    /   O peration     | Version:  1.7.0                                 |
|   \\  /    A nd           | Web:      www.OpenFOAM.com                      |
|    \\/     M anipulation  |                                                 |
\*---------------------------------------------------------------------------*/
FoamFile
{
    version     2.0;
    format      ascii;
    class       volScalarField;
    location    "0.252";
    object      kappa;
}
// * * * * * * * * * * * * * * * * * * * * * * * * * * * * * * * * * * * * * //

dimensions      [0 0 0 0 0 0 0];

internalField   nonuniform List<scalar> 
14800
(
0.00250675
0.00250719
0.00250755
0.00250785
0.00250811
0.00250835
0.00250857
0.00250877
0.00250901
0.00250931
0.00250956
0.00250973
0.00250987
0.00251003
0.00251021
0.00251038
0.00251055
0.0025107
0.00251084
0.00251097
0.00251108
0.00251118
0.00251132
0.00251148
0.00251166
0.00251183
0.00251201
0.00251221
0.00251246
0.00251275
0.00251308
0.00251347
0.00251397
0.0025146
0.00251542
0.00251646
0.00251785
0.0025197
0.00252217
0.00252542
0.00252964
0.00253508
0.00254209
0.00255105
0.00256238
0.0025766
0.00259429
0.00261609
0.00264266
0.00267467
0.00271277
0.00275754
0.00280935
0.00286824
0.00293417
0.00300666
0.00309176
0.00336783
0.00345707
0.00341301
0.00341017
0.00347877
0.00358289
0.00394915
0.00402187
0.00400772
0.00401409
0.00398455
0.00394332
0.0039194
0.00390772
0.00391785
0.00406363
0.00408697
0.00399515
0.00392047
0.00386591
0.00380201
0.00374314
0.00423914
0.00389416
0.00378115
0.00366291
0.00351038
0.00359631
0.00386724
0.00405598
0.00333588
0.00368623
0.00308281
0.00299146
0.00291852
0.00279403
0.00281019
0.00269569
0.00268569
0.00252053
0.00241784
0.00235799
0.00256879
0.00224821
0.00219806
0.00214366
0.00279568
0.00202467
0.00200434
0.00193513
0.00191483
0.00185798
0.00178578
0.00175587
0.00170008
0.00197166
0.00180698
0.00156828
0.00148276
0.00143325
0.00141993
0.00136193
0.00135246
0.00131273
0.0012637
0.00122831
0.00121462
0.00114821
0.00112874
0.00109691
0.00106686
0.0010328
0.00100551
0.000986468
0.000977272
0.0009504
0.000910748
0.000889481
0.000859764
0.000835689
0.000815925
0.000790647
0.000773088
0.000752265
0.000735331
0.000715601
0.000697614
0.00069066
0.000665296
0.000649711
0.000627302
0.000619437
0.000601621
0.000586997
0.00057267
0.000558255
0.000545082
0.00053025
0.000513258
0.000506541
0.000495163
0.000483886
0.000470067
0.000460343
0.000450152
0.000437305
0.000426469
0.000418223
0.000402156
0.000400102
0.000393262
0.000382257
0.000376114
0.000365967
0.00035928
0.000347057
0.000341057
0.000332443
0.000325355
0.000319492
0.000311518
0.000303909
0.000299665
0.000289305
0.00028431
0.000278545
0.000271285
0.000266437
0.00026192
0.000253979
0.00025052
0.000246157
0.000240988
0.000241528
0.000231411
0.000225698
0.000220815
0.00021736
0.000212081
0.000205689
0.000203753
0.000199806
0.000195245
0.00253219
0.00253235
0.00253255
0.00253277
0.00253298
0.00253318
0.00253336
0.00253353
0.00253377
0.00253405
0.0025343
0.00253446
0.00253457
0.0025347
0.00253488
0.00253507
0.00253526
0.00253544
0.00253559
0.00253574
0.00253585
0.00253595
0.00253608
0.00253625
0.00253643
0.00253661
0.0025368
0.00253703
0.00253733
0.00253769
0.00253812
0.00253865
0.00253932
0.00254018
0.00254128
0.00254269
0.00254455
0.00254698
0.00255017
0.00255432
0.00255964
0.00256644
0.00257508
0.00258596
0.00259954
0.00261638
0.00263709
0.00266228
0.00269259
0.00272864
0.00277097
0.00282003
0.00287607
0.00293885
0.00300809
0.0030831
0.00316705
0.00338235
0.00346321
0.00344944
0.00347029
0.00354624
0.00364401
0.00388603
0.00393867
0.00398482
0.00401596
0.00399887
0.00396837
0.00394696
0.00393434
0.00393178
0.00405839
0.00407698
0.00399317
0.00392261
0.0038691
0.00380567
0.0037442
0.00410297
0.00383206
0.00374469
0.00363922
0.00349843
0.0035005
0.0037135
0.0037076
0.00327627
0.00335412
0.00304231
0.00296715
0.00291397
0.00292
0.00279699
0.0026912
0.00264172
0.00251628
0.00242038
0.00235877
0.00247096
0.00224786
0.00219989
0.00214072
0.00223378
0.00203699
0.00200076
0.0019331
0.00191201
0.00185564
0.00178449
0.00175336
0.00169782
0.00161444
0.00176626
0.00155974
0.00148176
0.00143083
0.00139754
0.0013591
0.00133301
0.00131003
0.00126138
0.00122532
0.00120482
0.00115357
0.00112612
0.00109538
0.00106665
0.00103272
0.00100484
0.000986183
0.000973298
0.000944194
0.00090834
0.000887118
0.000859255
0.000835453
0.000815241
0.000790032
0.000772422
0.000752465
0.000734717
0.000715358
0.000697302
0.000689277
0.000664343
0.000649072
0.000627138
0.000618284
0.00060084
0.000586024
0.000572078
0.00055807
0.000544274
0.000529975
0.000512722
0.000504859
0.000494472
0.000483245
0.000469876
0.000459522
0.000449243
0.000437257
0.000426381
0.00041783
0.000401765
0.000399221
0.000392275
0.000381133
0.000374123
0.000364979
0.000357636
0.000346993
0.000340006
0.000331772
0.00032494
0.000318413
0.000311233
0.000303675
0.000298843
0.000289261
0.000283254
0.000277851
0.000271129
0.000266076
0.000261425
0.000253868
0.000249833
0.000245135
0.000240329
0.000238937
0.000230492
0.000225299
0.000220468
0.000216652
0.000211595
0.000205656
0.000203135
0.000199009
0.000194574
0.00258658
0.00258686
0.00258708
0.00258726
0.00258742
0.00258756
0.0025877
0.00258785
0.00258802
0.00258825
0.00258846
0.00258861
0.00258868
0.00258878
0.00258892
0.00258911
0.00258934
0.00258956
0.00258974
0.00258989
0.00259001
0.00259014
0.00259031
0.00259051
0.00259074
0.00259097
0.00259122
0.00259154
0.00259195
0.0025925
0.00259318
0.00259404
0.00259515
0.00259656
0.00259836
0.00260065
0.00260362
0.00260747
0.00261241
0.00261869
0.00262663
0.00263659
0.00264898
0.00266428
0.002683
0.00270575
0.00273312
0.0027657
0.00280405
0.00284859
0.00289962
0.00295732
0.00302157
0.00309169
0.0031669
0.00324613
0.00332907
0.00346896
0.003537
0.00356041
0.00360977
0.0036909
0.00377734
0.00388298
0.00394482
0.00401235
0.00405166
0.00404677
0.00402582
0.00400649
0.00399064
0.00398067
0.0040607
0.00406811
0.00399524
0.0039307
0.00387792
0.00381517
0.00375001
0.00392622
0.00374829
0.00369083
0.00360263
0.00348204
0.00342477
0.00354125
0.00345485
0.0032222
0.0031519
0.00301959
0.00295651
0.00290739
0.00288654
0.00277515
0.00268418
0.00260989
0.00251289
0.00242749
0.00236037
0.00237174
0.00225065
0.00220176
0.00213986
0.00203099
0.00203668
0.00199426
0.00192959
0.00190655
0.00185126
0.00178207
0.00174902
0.0016944
0.00160853
0.00170269
0.0015457
0.00148019
0.00142961
0.00139053
0.00135937
0.00133208
0.00130559
0.00125943
0.00122269
0.00119494
0.00115416
0.00112409
0.00109522
0.00106644
0.00103293
0.00100473
0.000986091
0.000968668
0.000937363
0.000906818
0.000885275
0.000858896
0.000835237
0.000814706
0.000789837
0.00077195
0.000752451
0.000734254
0.000715141
0.000697059
0.000687079
0.000663725
0.000648319
0.000627097
0.000617201
0.000600474
0.000585454
0.000571775
0.000557664
0.000543772
0.00052982
0.000512339
0.000504323
0.000494058
0.00048259
0.00046967
0.000459096
0.000448576
0.000437173
0.000426359
0.000417508
0.000401832
0.000398737
0.000391277
0.000380611
0.000372796
0.000364327
0.0003567
0.000346919
0.000339362
0.000331481
0.000324578
0.000317671
0.000310917
0.000303432
0.000298085
0.00028919
0.000282877
0.000277368
0.000271002
0.000265764
0.000261001
0.000253777
0.000249363
0.000244568
0.000239862
0.000236941
0.000229927
0.000224984
0.000220208
0.000216123
0.000211179
0.000205615
0.000202664
0.000198387
0.000194099
0.00266975
0.00266973
0.00266974
0.00266978
0.00266984
0.00266991
0.00266999
0.0026701
0.00267023
0.00267037
0.00267053
0.00267067
0.00267079
0.00267088
0.00267098
0.00267111
0.00267128
0.00267151
0.00267171
0.00267189
0.00267205
0.00267222
0.00267244
0.00267269
0.00267299
0.00267335
0.00267379
0.00267431
0.00267499
0.0026759
0.00267706
0.00267856
0.00268048
0.00268291
0.002686
0.00268991
0.00269493
0.00270133
0.00270936
0.00271935
0.00273177
0.00274705
0.00276567
0.00278819
0.00281516
0.00284714
0.00288467
0.00292823
0.00297812
0.00303445
0.00309711
0.00316581
0.00323983
0.00331812
0.00339934
0.00348197
0.00356389
0.00365669
0.00371558
0.00376036
0.00382198
0.00389638
0.00396576
0.00401597
0.00406202
0.00411102
0.00413711
0.00413283
0.00411456
0.00409317
0.00407087
0.0040504
0.00408472
0.00407565
0.00400978
0.00394889
0.00389511
0.00383231
0.0037644
0.00380631
0.00369224
0.00364941
0.003573
0.00347059
0.00339332
0.00342679
0.00333069
0.00319067
0.00308865
0.0030169
0.00295515
0.00290113
0.0028457
0.0027572
0.00267768
0.00259602
0.00251184
0.00243321
0.0023631
0.00232035
0.00225407
0.00220222
0.00213928
0.00202924
0.00203599
0.00198655
0.00192552
0.00189962
0.00184556
0.00177895
0.00174347
0.00168957
0.00161921
0.00164249
0.00153258
0.00147889
0.00143053
0.00139178
0.00136018
0.00133139
0.0013007
0.00125752
0.00122092
0.00118899
0.00115394
0.00112328
0.00109526
0.00106619
0.00103338
0.0010055
0.00098574
0.000963936
0.000932627
0.000905669
0.00088384
0.000858551
0.000835117
0.000814297
0.000789948
0.000771739
0.000752397
0.000733926
0.000714962
0.000696872
0.000684702
0.000663184
0.000647541
0.0006272
0.000616404
0.000600162
0.00058516
0.000571508
0.000557341
0.000543492
0.000529707
0.000512406
0.000504231
0.000493759
0.000482057
0.000469512
0.000458791
0.000448164
0.000437087
0.000426345
0.000417217
0.000402352
0.000398421
0.00039046
0.000380338
0.000372036
0.000363802
0.000356143
0.00034684
0.000338966
0.000331326
0.000324315
0.000317268
0.000310611
0.000303221
0.000297396
0.000289112
0.000282733
0.00027709
0.000270883
0.000265517
0.000260609
0.000253696
0.00024901
0.000244203
0.000239483
0.00023566
0.000229525
0.000224727
0.000219985
0.000215714
0.000210877
0.000205566
0.000202278
0.000197929
0.000193777
0.00277996
0.00277984
0.00277979
0.00277978
0.0027798
0.00277984
0.0027799
0.00277999
0.00278008
0.00278017
0.00278027
0.00278042
0.0027806
0.00278075
0.00278084
0.00278087
0.00278095
0.00278114
0.00278136
0.00278159
0.00278182
0.00278203
0.0027823
0.00278263
0.00278307
0.00278363
0.00278435
0.00278528
0.00278649
0.00278806
0.00279012
0.00279277
0.00279614
0.00280038
0.0028057
0.00281241
0.00282086
0.0028314
0.0028444
0.00286033
0.00287969
0.00290303
0.0029309
0.00296381
0.00300229
0.00304676
0.00309757
0.00315484
0.00321844
0.00328805
0.00336301
0.00344238
0.00352491
0.00360917
0.00369336
0.00377585
0.00385435
0.00392552
0.00397879
0.00402754
0.00408357
0.00414054
0.00418831
0.00421575
0.00423911
0.00425964
0.00426489
0.00425214
0.00422895
0.00420056
0.00416875
0.00413602
0.00413303
0.00410532
0.00404085
0.00397974
0.00392269
0.0038583
0.00378835
0.00375607
0.00367416
0.0036309
0.00355887
0.00346805
0.00338774
0.0033672
0.00327723
0.00317649
0.00308382
0.0030223
0.00295701
0.0028962
0.00282271
0.00274632
0.00267283
0.00259153
0.00251241
0.00243711
0.00236672
0.0023051
0.00225692
0.00220154
0.00213828
0.00205471
0.00203279
0.00197916
0.00192166
0.00189225
0.00183931
0.00177552
0.00173734
0.00168409
0.00162062
0.00159959
0.00152371
0.00147832
0.00143268
0.00139454
0.00136087
0.00132997
0.00129638
0.00125597
0.00122004
0.00118643
0.00115387
0.00112318
0.0010952
0.00106593
0.00103396
0.00100667
0.000985094
0.000960002
0.000929953
0.000904829
0.000882749
0.000858242
0.000835079
0.000814013
0.000790244
0.000771712
0.000752363
0.000733695
0.00071484
0.000696743
0.000682591
0.000662719
0.000646846
0.000627452
0.000615865
0.000599895
0.000585002
0.000571261
0.000557122
0.000543333
0.000529627
0.000512901
0.000504281
0.000493509
0.000481659
0.000469403
0.000458551
0.000447907
0.000437007
0.000426335
0.000416971
0.000403132
0.000398189
0.000389856
0.000380159
0.000371604
0.000363389
0.000355761
0.000346757
0.000338726
0.000331214
0.00032413
0.000317046
0.000310335
0.000303038
0.000296815
0.000289039
0.000282659
0.00027692
0.000270776
0.000265317
0.000260246
0.000253622
0.000248742
0.000243934
0.000239161
0.000234817
0.000229217
0.000224507
0.000219787
0.000215385
0.000210656
0.000205514
0.000201954
0.000197594
0.000193555
0.00291712
0.00291719
0.00291725
0.0029173
0.00291735
0.0029174
0.00291747
0.00291754
0.00291763
0.00291771
0.0029178
0.00291796
0.00291813
0.00291824
0.00291827
0.00291833
0.00291842
0.00291857
0.00291881
0.0029191
0.00291939
0.00291969
0.00292007
0.00292061
0.00292129
0.0029222
0.00292343
0.00292509
0.00292727
0.00293008
0.0029337
0.00293832
0.00294416
0.00295148
0.00296057
0.00297185
0.00298574
0.00300273
0.00302335
0.00304809
0.0030775
0.00311221
0.00315263
0.00319917
0.00325214
0.00331163
0.00337754
0.00344944
0.00352672
0.00360838
0.00369324
0.00377983
0.00386657
0.00395158
0.00403324
0.00411015
0.00418042
0.00423907
0.004285
0.00432582
0.00436588
0.00440092
0.00442572
0.00443549
0.0044376
0.00443325
0.0044184
0.00439268
0.00435944
0.00432061
0.00427744
0.00423193
0.00420064
0.00415519
0.00408781
0.00402306
0.00396068
0.00389295
0.00382067
0.00375546
0.00368453
0.00363283
0.00355992
0.00347443
0.00339429
0.00334328
0.00325831
0.00317394
0.00309355
0.00302926
0.00296009
0.0028933
0.00281352
0.00274124
0.00266985
0.00259079
0.00251399
0.00244038
0.00237092
0.0023061
0.00225883
0.00220048
0.00213728
0.00206777
0.00202836
0.00197319
0.00191853
0.00188529
0.0018332
0.00177214
0.00173125
0.00167865
0.00161899
0.0015752
0.00151944
0.00147847
0.00143509
0.00139683
0.00136146
0.0013286
0.0012932
0.00125501
0.00121983
0.00118584
0.00115405
0.00112337
0.00109509
0.00106572
0.00103457
0.00100774
0.000984314
0.000957261
0.000928693
0.000904299
0.000881967
0.000858014
0.000835109
0.000813854
0.000790646
0.000771797
0.000752371
0.000733546
0.000714777
0.000696681
0.000680991
0.000662379
0.000646315
0.000627823
0.00061552
0.000599702
0.000584908
0.000571061
0.000556984
0.000543237
0.000529583
0.000513652
0.000504373
0.000493295
0.000481376
0.000469333
0.000458375
0.000447733
0.000436937
0.000426331
0.000416781
0.000403988
0.000398014
0.000389434
0.000380019
0.000371346
0.000363084
0.000355466
0.000346676
0.000338587
0.000331124
0.000323994
0.000316897
0.000310098
0.000302879
0.000296364
0.000288978
0.000282611
0.0002768
0.000270682
0.000265153
0.000259923
0.000253555
0.000248541
0.000243721
0.000238884
0.000234246
0.000228972
0.000224316
0.00021961
0.000215118
0.000210486
0.00020546
0.000201687
0.000197348
0.000193399
0.00308271
0.00308287
0.00308296
0.00308301
0.00308304
0.00308306
0.00308309
0.00308312
0.00308318
0.00308328
0.0030834
0.00308352
0.00308358
0.00308359
0.00308363
0.00308373
0.00308387
0.00308405
0.00308433
0.0030847
0.00308513
0.00308565
0.00308634
0.00308724
0.00308843
0.00309009
0.00309233
0.0030953
0.0030992
0.00310419
0.00311049
0.00311842
0.00312836
0.00314068
0.00315583
0.00317424
0.00319644
0.00322303
0.00325459
0.00329165
0.0033347
0.00338407
0.00344001
0.00350262
0.00357172
0.0036468
0.00372715
0.00381177
0.00389944
0.00398861
0.00407777
0.0041651
0.00424909
0.00432804
0.00440065
0.00446587
0.00452233
0.00456719
0.0046008
0.00462688
0.00464723
0.00466008
0.00466303
0.00465463
0.00463788
0.00461354
0.00458123
0.00454137
0.00449578
0.00444513
0.0043902
0.00433242
0.00428017
0.00421958
0.00414685
0.00407628
0.00400726
0.00393477
0.00385922
0.0037815
0.00371063
0.00364848
0.00357211
0.0034878
0.00340699
0.00333975
0.00325706
0.00317899
0.00310471
0.0030363
0.00296411
0.00289274
0.0028119
0.00274
0.00266865
0.00259163
0.00251631
0.00244387
0.00237545
0.00231148
0.0022601
0.0021997
0.00213674
0.00207264
0.00202454
0.00196916
0.00191638
0.00187927
0.00182772
0.00176912
0.00172574
0.00167377
0.00161712
0.00156453
0.00151855
0.00147918
0.00143725
0.00139856
0.00136207
0.00132767
0.0012913
0.00125465
0.00122003
0.00118614
0.0011544
0.00112368
0.00109501
0.00106557
0.00103514
0.00100848
0.00098356
0.000955636
0.000928261
0.000904055
0.000881457
0.000857891
0.0008352
0.000813812
0.000791105
0.000771951
0.000752429
0.000733476
0.000714774
0.000696687
0.000679958
0.000662185
0.000645977
0.000628262
0.00061531
0.000599591
0.000584856
0.00057092
0.000556902
0.000543178
0.000529575
0.000514475
0.000504475
0.000493119
0.000481185
0.000469292
0.000458257
0.000447608
0.000436881
0.000426336
0.000416647
0.000404788
0.000397886
0.000389144
0.000379905
0.000371185
0.000362873
0.000355227
0.000346602
0.000338508
0.00033105
0.000323887
0.000316773
0.000309899
0.000302742
0.000296039
0.000288931
0.000282577
0.000276706
0.000270603
0.000265016
0.000259651
0.000253497
0.000248393
0.000243547
0.000238648
0.000233851
0.000228775
0.000224147
0.000219454
0.0002149
0.000210342
0.000205407
0.00020147
0.000197167
0.000193283
0.00327805
0.00327798
0.00327787
0.00327776
0.00327766
0.00327758
0.00327754
0.00327753
0.00327756
0.00327767
0.00327772
0.00327772
0.0032777
0.00327773
0.00327781
0.00327793
0.00327812
0.00327839
0.00327877
0.00327931
0.00328006
0.00328105
0.00328234
0.00328402
0.00328633
0.00328942
0.00329352
0.00329885
0.00330574
0.00331443
0.00332528
0.00333872
0.00335524
0.00337542
0.00339978
0.0034288
0.003463
0.00350296
0.0035492
0.00360213
0.00366185
0.00372826
0.00380118
0.00388006
0.00396406
0.00405208
0.00414279
0.00423464
0.0043259
0.00441503
0.00450045
0.00458053
0.00465389
0.00471963
0.00477685
0.00482481
0.0048629
0.00489009
0.00490674
0.00491465
0.0049147
0.00490657
0.00488958
0.0048634
0.00482953
0.00478853
0.00474101
0.00468766
0.00462959
0.00456724
0.00450114
0.00443226
0.00436457
0.00429181
0.00421274
0.0041355
0.00405937
0.00398131
0.00390153
0.00381867
0.00374343
0.00367178
0.00359116
0.00350585
0.00342338
0.00334743
0.00326534
0.00318877
0.00311551
0.00304363
0.00296914
0.00289448
0.00281408
0.00274126
0.00266916
0.00259352
0.00251936
0.00244785
0.00238016
0.00231691
0.00226124
0.00219957
0.00213693
0.00207486
0.00202223
0.00196705
0.00191524
0.0018745
0.00182321
0.00176667
0.00172118
0.00166981
0.00161574
0.00156185
0.00151954
0.00148022
0.00143906
0.00139998
0.00136279
0.00132728
0.0012905
0.0012548
0.00122046
0.00118675
0.00115484
0.00112403
0.00109499
0.00106552
0.00103566
0.0010089
0.000982935
0.000954842
0.000928274
0.000904047
0.000881185
0.00085788
0.000835347
0.000813869
0.000791588
0.000772151
0.000752535
0.00073348
0.000714827
0.000696756
0.000679418
0.000662128
0.000645819
0.000628718
0.000615191
0.000599549
0.000584843
0.000570838
0.000556862
0.000543146
0.000529601
0.000515233
0.000504572
0.000492986
0.000481064
0.000469274
0.000458187
0.000447518
0.000436843
0.000426352
0.000416562
0.000405459
0.000397796
0.000388945
0.000379816
0.000371083
0.000362735
0.000355032
0.000346538
0.000338467
0.000330993
0.000323799
0.000316661
0.000309736
0.000302625
0.000295817
0.000288899
0.000282554
0.000276628
0.000270539
0.000264903
0.000259431
0.000253448
0.000248285
0.000243403
0.00023845
0.000233572
0.000228614
0.000223999
0.000219317
0.000214723
0.000210215
0.000205356
0.000201297
0.000197034
0.000193194
0.00350377
0.00350331
0.00350293
0.00350264
0.00350241
0.00350225
0.00350215
0.00350212
0.00350215
0.00350214
0.00350214
0.00350211
0.00350208
0.00350217
0.00350238
0.00350264
0.00350296
0.00350342
0.00350406
0.00350497
0.00350633
0.00350822
0.00351068
0.00351395
0.00351835
0.00352408
0.0035315
0.00354099
0.00355293
0.0035678
0.0035861
0.00360835
0.0036351
0.003667
0.00370458
0.00374832
0.00379855
0.00385565
0.00391974
0.00399074
0.00406822
0.00415146
0.00423957
0.00433128
0.00442505
0.00451944
0.00461266
0.00470298
0.00478873
0.00486871
0.00494153
0.00500634
0.00506206
0.00510841
0.00514518
0.00517192
0.00518868
0.00519544
0.00519243
0.00518078
0.00516113
0.0051336
0.00509843
0.00505575
0.00500636
0.00495088
0.00489003
0.00482452
0.00475502
0.00468193
0.00460581
0.00452727
0.00444812
0.00436579
0.00428042
0.00419653
0.00411355
0.00402973
0.00394519
0.00385886
0.00377802
0.00369864
0.00361383
0.00352658
0.003442
0.00336107
0.00327861
0.00320115
0.00312633
0.00305154
0.00297518
0.00289822
0.00281832
0.00274428
0.00267121
0.00259638
0.00252309
0.00245232
0.00238496
0.00232162
0.00226268
0.00220025
0.0021379
0.00207674
0.00202157
0.00196658
0.00191502
0.00187106
0.0018198
0.00176491
0.00171775
0.00166691
0.001615
0.00156284
0.00152131
0.00148143
0.00144061
0.00140128
0.00136363
0.00132738
0.00129052
0.00125528
0.00122103
0.00118743
0.00115535
0.00112444
0.00109508
0.00106556
0.00103611
0.00100911
0.00098249
0.000954588
0.000928518
0.000904221
0.000881116
0.000857978
0.000835548
0.000814008
0.000792071
0.000772382
0.000752687
0.000733555
0.000714934
0.000696881
0.000679243
0.000662182
0.000645806
0.000629152
0.000615135
0.000599563
0.000584864
0.000570807
0.000556853
0.00054314
0.000529653
0.000515862
0.000504661
0.000492897
0.000480996
0.000469277
0.000458156
0.000447459
0.000436825
0.000426381
0.000416521
0.000405977
0.000397736
0.000388809
0.000379752
0.000371022
0.000362651
0.000354878
0.000346486
0.000338448
0.000330951
0.000323724
0.000316562
0.000309604
0.00030253
0.000295674
0.00028888
0.000282539
0.000276564
0.00027049
0.000264811
0.000259263
0.000253411
0.000248206
0.000243282
0.000238286
0.000233371
0.000228481
0.000223869
0.000219198
0.000214579
0.000210099
0.000205309
0.000201161
0.000196936
0.000193123
0.00376084
0.00376039
0.00376004
0.00375978
0.00375958
0.00375942
0.00375931
0.00375926
0.00375924
0.00375914
0.00375909
0.00375907
0.00375916
0.00375943
0.00375981
0.00376031
0.00376096
0.0037619
0.00376323
0.00376512
0.0037678
0.00377144
0.00377623
0.0037825
0.00379063
0.00380105
0.00381427
0.00383076
0.00385106
0.00387583
0.00390565
0.00394112
0.00398276
0.004031
0.00408616
0.00414848
0.00421792
0.00429426
0.00437693
0.0044651
0.0045576
0.00465305
0.00474994
0.00484652
0.00494102
0.00503176
0.00511711
0.0051957
0.00526635
0.00532828
0.00538082
0.00542362
0.00545641
0.00547935
0.00549257
0.00549598
0.00549012
0.00547539
0.00545202
0.0054208
0.00538246
0.00533727
0.00528563
0.00522792
0.00516476
0.00509655
0.00502407
0.00494786
0.00486834
0.00478594
0.00470117
0.00461446
0.00452663
0.00443683
0.00434572
0.00425575
0.00416662
0.00407738
0.00398808
0.00389826
0.00381202
0.0037265
0.00363796
0.00354848
0.0034617
0.00337756
0.0032941
0.00321469
0.00313737
0.00306007
0.00298208
0.00290353
0.00282384
0.00274862
0.0026746
0.00260014
0.00252744
0.00245715
0.0023898
0.00232586
0.00226464
0.00220174
0.00213959
0.00207892
0.00202231
0.00196735
0.00191555
0.00186889
0.00181751
0.00176384
0.00171546
0.00166511
0.00161488
0.00156506
0.00152326
0.00148273
0.00144201
0.00140254
0.00136458
0.00132784
0.00129105
0.00125597
0.00122168
0.00118813
0.00115592
0.0011249
0.00109526
0.00106571
0.00103652
0.00100924
0.000982241
0.000954663
0.000928887
0.000904528
0.000881218
0.000858174
0.0008358
0.000814215
0.000792542
0.000772639
0.00075288
0.000733695
0.000715091
0.000697053
0.000679306
0.000662319
0.000645896
0.000629546
0.000615125
0.000599619
0.00058492
0.000570819
0.00055687
0.000543158
0.000529728
0.000516348
0.000504743
0.00049285
0.000480969
0.000469298
0.000458155
0.000447429
0.000436827
0.000426423
0.000416515
0.000406354
0.000397701
0.00038872
0.000379714
0.000370992
0.000362606
0.00035476
0.000346447
0.000338444
0.000330923
0.000323662
0.00031648
0.000309501
0.000302456
0.000295587
0.000288874
0.000282532
0.000276515
0.000270454
0.000264739
0.000259139
0.000253384
0.000248149
0.000243181
0.000238153
0.000233222
0.000228373
0.000223756
0.000219093
0.000214461
0.000209994
0.000205266
0.000201057
0.000196864
0.000193067
0.00405348
0.00405355
0.0040535
0.00405339
0.00405324
0.00405309
0.00405296
0.00405287
0.00405277
0.00405269
0.00405258
0.00405264
0.00405299
0.00405352
0.00405419
0.00405515
0.00405654
0.00405855
0.00406145
0.00406549
0.00407084
0.00407787
0.004087
0.00409871
0.0041135
0.00413205
0.00415493
0.00418274
0.00421618
0.00425586
0.00430234
0.00435607
0.00441729
0.00448592
0.00456178
0.00464442
0.00473311
0.00482678
0.00492407
0.00502336
0.00512297
0.0052211
0.00531598
0.00540589
0.0054894
0.0055651
0.00563195
0.00568927
0.00573653
0.00577351
0.00580025
0.00581689
0.00582371
0.0058212
0.00580961
0.00578931
0.00576103
0.00572511
0.005682
0.00563232
0.00557678
0.00551569
0.00544941
0.00537833
0.0053029
0.00522365
0.00514109
0.00505564
0.00496759
0.00487735
0.00478529
0.00469182
0.00459732
0.00450166
0.00440558
0.00431045
0.00421607
0.00412203
0.00402841
0.00393506
0.00384411
0.00375377
0.00366202
0.00357037
0.00348148
0.00339497
0.00331011
0.00322844
0.00314853
0.00306905
0.0029896
0.00290989
0.00283015
0.00275389
0.00267903
0.00260467
0.00253226
0.00246219
0.00239463
0.00232992
0.00226713
0.00220391
0.00214187
0.00208148
0.00202406
0.00196897
0.00191664
0.00186781
0.00181622
0.00176344
0.00171423
0.0016643
0.00161531
0.00156744
0.00152515
0.00148408
0.00144335
0.00140379
0.00136561
0.00132857
0.00129187
0.00125678
0.00122239
0.00118884
0.00115653
0.00112542
0.00109556
0.00106596
0.00103693
0.00100938
0.000982183
0.000954934
0.00092933
0.000904929
0.000881456
0.000858451
0.000836099
0.000814476
0.000792996
0.00077292
0.000753114
0.000733892
0.000715295
0.000697266
0.000679507
0.000662515
0.000646059
0.000629897
0.000615154
0.000599709
0.000585006
0.000570865
0.00055691
0.000543201
0.000529821
0.000516712
0.000504822
0.00049284
0.000480975
0.000469337
0.000458179
0.000447428
0.00043685
0.000426479
0.00041654
0.00040662
0.00039769
0.000388668
0.0003797
0.000370987
0.000362592
0.000354675
0.000346423
0.000338452
0.000330908
0.000323613
0.000316416
0.000309422
0.000302402
0.00029554
0.000288878
0.000282533
0.00027648
0.00027043
0.000264685
0.000259053
0.000253367
0.000248109
0.000243098
0.000238048
0.00023311
0.000228285
0.00022366
0.000219003
0.000214365
0.0002099
0.000205229
0.000200979
0.000196811
0.000193022
0.00439059
0.00439043
0.00439015
0.00438984
0.00438951
0.00438921
0.00438896
0.00438877
0.00438859
0.00438855
0.00438863
0.00438891
0.00438954
0.00439049
0.00439198
0.00439417
0.00439726
0.00440156
0.00440754
0.00441558
0.00442604
0.00443942
0.00445636
0.00447753
0.00450367
0.00453551
0.00457366
0.00461871
0.00467116
0.00473138
0.00479956
0.00487559
0.004959
0.00504903
0.00514458
0.00524422
0.00534648
0.0054495
0.00555132
0.00565004
0.00574401
0.00583163
0.00591132
0.00598207
0.006043
0.00609344
0.00613307
0.00616199
0.0061803
0.0061882
0.00618622
0.00617488
0.00615489
0.00612667
0.00609068
0.00604754
0.00599799
0.00594225
0.00588089
0.00581445
0.00574351
0.00566823
0.00558907
0.00550636
0.00542034
0.00533156
0.00524041
0.00514711
0.00505193
0.00495518
0.00485715
0.0047582
0.00465855
0.00455831
0.00445811
0.00435876
0.00426013
0.00416209
0.00406481
0.00396822
0.00387339
0.00377932
0.0036849
0.00359132
0.00350049
0.00341204
0.00332559
0.00324173
0.00315951
0.00307817
0.00299743
0.00291684
0.00283688
0.00275975
0.00268416
0.00260971
0.00253737
0.00246728
0.0023994
0.00233393
0.00227005
0.00220658
0.00214456
0.00208431
0.00202644
0.00197111
0.00191814
0.00186763
0.00181578
0.0017636
0.00171388
0.00166431
0.0016162
0.00156964
0.00152693
0.00148545
0.00144466
0.00140505
0.0013667
0.00132946
0.00129284
0.00125765
0.00122315
0.00118958
0.00115719
0.001126
0.00109594
0.0010663
0.00103734
0.00100959
0.000982296
0.000955328
0.000929826
0.000905396
0.000881798
0.000858795
0.000836439
0.000814781
0.000793435
0.000773223
0.000753383
0.000734138
0.00071554
0.000697513
0.000679782
0.000662754
0.00064627
0.000630213
0.000615219
0.000599828
0.000585119
0.00057094
0.000556973
0.000543267
0.000529929
0.000516985
0.000504904
0.000492864
0.000481008
0.000469393
0.000458224
0.000447452
0.000436891
0.000426548
0.00041659
0.00040681
0.0003977
0.000388649
0.000379708
0.000371003
0.000362601
0.000354619
0.000346414
0.00033847
0.000330906
0.000323579
0.000316371
0.000309364
0.000302367
0.000295522
0.000288893
0.000282542
0.000276459
0.000270418
0.000264648
0.000258997
0.00025336
0.000248084
0.000243032
0.000237967
0.000233026
0.000228214
0.00022358
0.000218927
0.000214287
0.000209818
0.000205198
0.000200922
0.000196775
0.000192986
0.00477991
0.00477877
0.00477784
0.00477708
0.00477643
0.00477591
0.00477553
0.00477527
0.00477515
0.00477527
0.00477573
0.00477657
0.00477797
0.00478019
0.00478359
0.00478841
0.00479502
0.00480398
0.00481589
0.00483139
0.00485115
0.00487591
0.00490638
0.00494329
0.00498738
0.00503925
0.0050993
0.00516779
0.0052446
0.00532932
0.00542131
0.00551945
0.0056223
0.00572818
0.0058351
0.00594105
0.00604407
0.00614212
0.0062333
0.00631616
0.00638951
0.00645269
0.00650475
0.0065455
0.00657494
0.00659292
0.00659996
0.00659662
0.00658336
0.00656068
0.00652952
0.0064905
0.00644452
0.00639181
0.00633307
0.0062689
0.00619988
0.0061262
0.00604852
0.00596719
0.00588273
0.00579511
0.00570479
0.00561212
0.00551721
0.00542042
0.00532206
0.00522225
0.00512124
0.00501917
0.00491639
0.00481317
0.00470951
0.00460573
0.00450227
0.0043996
0.00429769
0.00419653
0.0040963
0.00399701
0.00389916
0.00380227
0.00370574
0.00361053
0.00351801
0.00342791
0.00333989
0.00325411
0.00316997
0.00308709
0.00300522
0.00292393
0.00284367
0.00276582
0.00268962
0.00261499
0.00254255
0.00247229
0.00240403
0.00233788
0.00227325
0.00220955
0.00214749
0.00208729
0.00202916
0.00197351
0.0019199
0.00186812
0.00181602
0.00176422
0.00171422
0.00166494
0.00161741
0.00157164
0.00152861
0.00148683
0.00144597
0.0014063
0.00136781
0.00133044
0.00129386
0.00125854
0.00122395
0.00119034
0.00115789
0.00112662
0.00109641
0.00106672
0.00103779
0.00100989
0.000982556
0.000955805
0.000930361
0.000905909
0.000882216
0.000859192
0.000836815
0.000815124
0.000793863
0.000773551
0.000753687
0.000734427
0.000715822
0.000697791
0.000680094
0.000663023
0.000646515
0.000630506
0.000615321
0.000599973
0.000585257
0.000571041
0.000557058
0.000543357
0.000530052
0.0005172
0.000504994
0.000492916
0.000481064
0.000469467
0.000458289
0.0004475
0.000436952
0.00042663
0.000416661
0.000406954
0.000397731
0.000388658
0.000379735
0.000371038
0.000362629
0.000354589
0.00034642
0.000338498
0.000330915
0.00032356
0.000316344
0.000309327
0.000302349
0.000295524
0.000288916
0.000282559
0.000276452
0.000270417
0.000264627
0.000258965
0.000253362
0.00024807
0.000242981
0.000237907
0.000232964
0.000228158
0.000223514