/*--------------------------------*- C++ -*----------------------------------*\
| =========                 |                                                 |
| \\      /  F ield         | OpenFOAM: The Open Source CFD Toolbox           |
|  \\    /   O peration     | Version:  1.7.0                                 |
|   \\  /    A nd           | Web:      www.OpenFOAM.com                      |
|    \\/     M anipulation  |                                                 |
\*---------------------------------------------------------------------------*/
FoamFile
{
    version     2.0;
    format      ascii;
    class       surfaceScalarField;
    location    "0.252";
    object      phi;
}
// * * * * * * * * * * * * * * * * * * * * * * * * * * * * * * * * * * * * * //

dimensions      [1 0 -1 0 0 0 0];

internalField   nonuniform List<scalar> 
29326
(
6.88912e-08
1.74165e-11
6.88663e-08
2.49587e-11
6.88295e-08
3.6802e-11
6.87845e-08
4.49763e-11
6.87351e-08
4.93783e-11
6.86844e-08
5.07448e-11
6.86443e-08
4.00746e-11
6.86437e-08
5.82894e-13
6.85969e-08
4.73e-11
6.85115e-08
8.54627e-11
6.84344e-08
7.72214e-11
6.83619e-08
7.24718e-11
6.83098e-08
5.2162e-11
6.82681e-08
4.16871e-11
6.82277e-08
4.03315e-11
6.8186e-08
4.1772e-11
6.81247e-08
6.15103e-11
6.80481e-08
7.66269e-11
6.79666e-08
8.16134e-11
6.78841e-08
8.25226e-11
6.7813e-08
7.10444e-11
6.77463e-08
6.67386e-11
6.76785e-08
6.7762e-11
6.76104e-08
6.81275e-11
6.75436e-08
6.68178e-11
6.74784e-08
6.52072e-11
6.74153e-08
6.30321e-11
6.73546e-08
6.07025e-11
6.72889e-08
6.57793e-11
6.72146e-08
7.44786e-11
6.71417e-08
7.28409e-11
6.7067e-08
7.47572e-11
6.6983e-08
8.41191e-11
6.68943e-08
8.87254e-11
6.6808e-08
8.62769e-11
6.67232e-08
8.47953e-11
6.66363e-08
8.69499e-11
6.65451e-08
9.11656e-11
6.64504e-08
9.46942e-11
6.63515e-08
9.89287e-11
6.62493e-08
1.02178e-10
6.61446e-08
1.04698e-10
6.6037e-08
1.07622e-10
6.59252e-08
1.11796e-10
6.58064e-08
1.18765e-10
6.56789e-08
1.27541e-10
6.55424e-08
1.36509e-10
6.53975e-08
1.4484e-10
6.52332e-08
1.64438e-10
6.50486e-08
1.84578e-10
6.48535e-08
1.95138e-10
6.46301e-08
2.23445e-10
6.43763e-08
2.53932e-10
6.40994e-08
2.76831e-10
6.37984e-08
3.01003e-10
6.34875e-08
3.10966e-10
6.31216e-08
3.66285e-10
6.26903e-08
4.31268e-10
6.2229e-08
4.61322e-10
6.17335e-08
4.95524e-10
6.11946e-08
5.38871e-10
6.06156e-08
5.7903e-10
6.00348e-08
5.80802e-10
5.93926e-08
6.42574e-10
5.86831e-08
7.0965e-10
5.79567e-08
7.26692e-10
5.72083e-08
7.48475e-10
5.6449e-08
7.59421e-10
5.56565e-08
7.92721e-10
5.48379e-08
8.18555e-10
5.4044e-08
7.93899e-10
5.32817e-08
7.62749e-10
5.24841e-08
7.9794e-10
5.16072e-08
8.7789e-10
5.07187e-08
8.88778e-10
4.98956e-08
8.23154e-10
4.90883e-08
8.07839e-10
4.82589e-08
8.29774e-10
4.74431e-08
8.15825e-10
4.66196e-08
8.23527e-10
4.58568e-08
7.6282e-10
4.51099e-08
7.47467e-10
4.43568e-08
7.53621e-10
4.36334e-08
7.2373e-10
4.29585e-08
6.76285e-10
4.22549e-08
7.05595e-10
4.1549e-08
7.0713e-10
4.08388e-08
7.13848e-10
4.00927e-08
7.46251e-10
3.94509e-08
6.44316e-10
3.88054e-08
6.47631e-10
3.81504e-08
6.57413e-10
3.75154e-08
6.38232e-10
3.68778e-08
6.39885e-10
3.62706e-08
6.08289e-10
3.56858e-08
5.8682e-10
3.51294e-08
5.58612e-10
3.46018e-08
5.30029e-10
3.40694e-08
5.36338e-10
3.35114e-08
5.61326e-10
3.29791e-08
5.38675e-10
3.2459e-08
5.2425e-10
3.19268e-08
5.37294e-10
3.14305e-08
5.00446e-10
3.09876e-08
4.48095e-10
3.05159e-08
4.74475e-10
3.00608e-08
4.56104e-10
2.96185e-08
4.44256e-10
2.91866e-08
4.3489e-10
2.87675e-08
4.21594e-10
2.83589e-08
4.11507e-10
2.79479e-08
4.18954e-10
2.75584e-08
3.9385e-10
2.7171e-08
3.96758e-10
2.67893e-08
3.88101e-10
2.64193e-08
3.72147e-10
2.60681e-08
3.55377e-10
2.57105e-08
3.64856e-10
2.53748e-08
3.43162e-10
2.50691e-08
3.17185e-10
2.4742e-08
3.37957e-10
2.44356e-08
3.13058e-10
2.41223e-08
3.28869e-10
2.37979e-08
3.32144e-10
2.3493e-08
3.20687e-10
2.3187e-08
3.14647e-10
2.28954e-08
3.0411e-10
2.26071e-08
2.99529e-10
2.23276e-08
2.85346e-10
2.20659e-08
2.68775e-10
2.17994e-08
2.74469e-10
2.15433e-08
2.67717e-10
2.12939e-08
2.59555e-10
2.10461e-08
2.63992e-10
2.08137e-08
2.50272e-10
2.05767e-08
2.51244e-10
2.03374e-08
2.53522e-10
2.01042e-08
2.48459e-10
1.98807e-08
2.37161e-10
1.96634e-08
2.34048e-10
1.9448e-08
2.30271e-10
1.92474e-08
2.13414e-10
1.90459e-08
2.18461e-10
1.88339e-08
2.31783e-10
1.8643e-08
2.01556e-10
1.84589e-08
2.04884e-10
1.82642e-08
2.14926e-10
1.80772e-08
2.04737e-10
1.78961e-08
1.93506e-10
1.77208e-08
1.97456e-10
1.75447e-08
1.97242e-10
1.73692e-08
1.92921e-10
1.72062e-08
1.79651e-10
1.70494e-08
1.77501e-10
1.68867e-08
1.77937e-10
1.67227e-08
1.78974e-10
1.65667e-08
1.83102e-10
1.64185e-08
1.74141e-10
1.62746e-08
1.6699e-10
1.61293e-08
1.78365e-10
1.59823e-08
1.72303e-10
1.58388e-08
1.74698e-10
1.57011e-08
1.6325e-10
1.55674e-08
1.56964e-10
1.54311e-08
1.57715e-10
1.53005e-08
1.52838e-10
1.51752e-08
1.58521e-10
1.50538e-08
1.43133e-10
1.49285e-08
1.66584e-10
1.48026e-08
1.49959e-10
1.4684e-08
1.59655e-10
1.45702e-08
1.44652e-10
1.44586e-08
1.45036e-10
1.43489e-08
1.41215e-10
1.4239e-08
1.57198e-10
1.41319e-08
1.33601e-10
1.4025e-08
1.39242e-10
1.39149e-08
1.33494e-10
1.38127e-08
1.3661e-10
1.37174e-08
1.36777e-10
1.36199e-08
1.34419e-10
1.35249e-08
1.60916e-10
1.34302e-08
1.31859e-10
1.33369e-08
1.26339e-10
1.32468e-08
1.25873e-10
1.31572e-08
1.27944e-10
1.30687e-08
1.29106e-10
1.29856e-08
1.26905e-10
1.28989e-08
1.34554e-10
1.28141e-08
1.30021e-10
1.27353e-08
1.32709e-10
1.26528e-08
1.2849e-10
1.25747e-08
1.08096e-10
1.24999e-08
1.1499e-10
1.24264e-08
1.16997e-10
1.23549e-08
1.14264e-10
1.2284e-08
1.21744e-10
1.22204e-08
1.13853e-10
1.21519e-08
1.1231e-10
8.69044e-11
2.06529e-07
5.86461e-11
2.06448e-07
1.05201e-10
2.06337e-07
1.48309e-10
2.06203e-07
1.79165e-10
2.06055e-07
1.97673e-10
2.05899e-07
2.06093e-10
2.05747e-07
1.92142e-10
2.05603e-07
1.44671e-10
2.05483e-07
1.67594e-10
2.05307e-07
2.61554e-10
2.05102e-07
2.82565e-10
2.04917e-07
2.56938e-10
2.04768e-07
2.01773e-10
2.04651e-07
1.58312e-10
2.0452e-07
1.71376e-10
2.04349e-07
2.13382e-10
2.04159e-07
2.51255e-10
2.03939e-07
2.97194e-10
2.03701e-07
3.19052e-10
2.03484e-07
3.00369e-10
2.03282e-07
2.72456e-10
2.03091e-07
2.57795e-10
2.0289e-07
2.68992e-10
2.02681e-07
2.76868e-10
2.02481e-07
2.67006e-10
2.02284e-07
2.62006e-10
2.02094e-07
2.52921e-10
2.01898e-07
2.5681e-10
2.01692e-07
2.72275e-10
2.01479e-07
2.87481e-10
2.01261e-07
2.90664e-10
2.01025e-07
3.1118e-10
2.00776e-07
3.33103e-10
2.00522e-07
3.42465e-10
2.00264e-07
3.4501e-10
2.0001e-07
3.38815e-10
1.9975e-07
3.46352e-10
1.99475e-07
3.66478e-10
1.99187e-07
3.82723e-10
1.98887e-07
3.99752e-10
1.98576e-07
4.13084e-10
1.98256e-07
4.2481e-10
1.97926e-07
4.37231e-10
1.97585e-07
4.5302e-10
1.97221e-07
4.8223e-10
1.96828e-07
5.2107e-10
1.96407e-07
5.57632e-10
1.95947e-07
6.0425e-10
1.95436e-07
6.75336e-10
1.94881e-07
7.4009e-10
1.94272e-07
8.03754e-10
1.9358e-07
9.15873e-10
1.9281e-07
1.02441e-09
1.91963e-07
1.1234e-09
1.91037e-07
1.22696e-09
1.9003e-07
1.31812e-09
1.88907e-07
1.48956e-09
1.87645e-07
1.6928e-09
1.86265e-07
1.84151e-09
1.84785e-07
1.9757e-09
1.83164e-07
2.15973e-09
1.81409e-07
2.33458e-09
1.79586e-07
2.40333e-09
1.77652e-07
2.57702e-09
1.75591e-07
2.77095e-09
1.73435e-07
2.8829e-09
1.71203e-07
2.97961e-09
1.68926e-07
3.03682e-09
1.66566e-07
3.15341e-09
1.64145e-07
3.24006e-09
1.6176e-07
3.17834e-09
1.59415e-07
3.10906e-09
1.56952e-07
3.26065e-09
1.54383e-07
3.4468e-09
1.51838e-07
3.43439e-09
1.4937e-07
3.2909e-09
1.46941e-07
3.23683e-09
1.44491e-07
3.28005e-09
1.42068e-07
3.23916e-09
1.39626e-07
3.26489e-09
1.37331e-07
3.05856e-09
1.35073e-07
3.00548e-09
1.32834e-07
2.99247e-09
1.30654e-07
2.90497e-09
1.28542e-07
2.78833e-09
1.26409e-07
2.83814e-09
1.24294e-07
2.82344e-09
1.22198e-07
2.80976e-09
1.20096e-07
2.84883e-09
1.18147e-07
2.594e-09
1.16202e-07
2.59344e-09
1.14257e-07
2.60176e-09
1.1235e-07
2.54578e-09
1.10471e-07
2.51976e-09
1.08655e-07
2.42386e-09
1.06916e-07
2.32599e-09
1.05243e-07
2.23169e-09
1.03629e-07
2.14476e-09
1.02026e-07
2.13987e-09
1.00383e-07
2.20516e-09
9.88067e-08
2.11667e-09
9.7248e-08
2.08299e-09
9.56799e-08
2.10575e-09
9.42454e-08
1.93556e-09
9.28568e-08
1.83717e-09
9.1459e-08
1.87223e-09
9.01078e-08
1.80866e-09
8.87852e-08
1.76815e-09
8.74892e-08
1.73205e-09
8.6234e-08
1.6782e-09
8.50008e-08
1.64657e-09
8.37733e-08
1.64664e-09
8.2622e-08
1.54681e-09
8.1453e-08
1.56729e-09
8.03243e-08
1.51768e-09
7.92126e-08
1.48383e-09
7.81447e-08
1.42576e-09
7.70831e-08
1.42785e-09
7.60776e-08
1.35023e-09
7.51255e-08
1.27023e-09
7.4148e-08
1.31745e-09
7.32184e-08
1.2454e-09
7.22839e-08
1.26613e-09
7.1334e-08
1.28567e-09
7.0419e-08
1.24089e-09
6.95086e-08
1.22568e-09
6.86335e-08
1.18006e-09
6.77787e-08
1.15594e-09
6.69506e-08
1.11604e-09
6.61602e-08
1.06002e-09
6.53651e-08
1.07113e-09
6.45931e-08
1.04073e-09
6.3844e-08
1.01156e-09
6.3109e-08
1.00132e-09
6.24032e-08
9.59578e-10
6.16908e-08
9.6529e-10
6.09798e-08
9.70146e-10
6.02855e-08
9.4691e-10
5.96146e-08
9.09666e-10
5.89638e-08
8.86456e-10
5.83224e-08
8.72969e-10
5.77099e-08
8.30182e-10
5.71014e-08
8.2855e-10
5.64806e-08
8.55709e-10
5.59014e-08
7.80744e-10
5.53419e-08
7.65278e-10
5.47681e-08
7.90318e-10
5.42115e-08
7.63063e-10
5.36675e-08
7.4039e-10
5.31384e-08
7.27084e-10
5.2613e-08
7.2556e-10
5.2093e-08
7.15709e-10
5.16005e-08
6.74495e-10
5.11215e-08
6.57889e-10
5.06353e-08
6.68677e-10
5.01566e-08
6.60167e-10
4.96901e-08
6.54387e-10
4.92392e-08
6.25559e-10
4.88022e-08
6.0821e-10
4.83669e-08
6.1816e-10
4.7931e-08
6.11987e-10
4.75037e-08
6.05707e-10
4.70921e-08
5.76986e-10
4.66904e-08
5.6246e-10
4.6284e-08
5.66336e-10
4.58929e-08
5.48049e-10
4.55145e-08
5.39933e-10
4.5147e-08
5.15e-10
4.47746e-08
5.44354e-10
4.4402e-08
5.26609e-10
4.40453e-08
5.18347e-10
4.37031e-08
4.89098e-10
4.3368e-08
4.85697e-10
4.30361e-08
4.77598e-10
4.27061e-08
4.90005e-10
4.23829e-08
4.60812e-10
4.20642e-08
4.61106e-10
4.17432e-08
4.56952e-10
4.14368e-08
4.46507e-10
4.1145e-08
4.31102e-10
4.08509e-08
4.33248e-10
4.05655e-08
4.50872e-10
4.0281e-08
4.2099e-10
4.00009e-08
4.09553e-10
3.97305e-08
3.98164e-10
3.94625e-08
3.97878e-10
3.9198e-08
3.94938e-10
3.89445e-08
3.8575e-10
3.8688e-08
3.92758e-10
3.8437e-08
3.84073e-10
3.8197e-08
3.75825e-10
3.79534e-08
3.74283e-10
3.77198e-08
3.46708e-10
3.74937e-08
3.44332e-10
3.72729e-08
3.40039e-10
3.70588e-08
3.31786e-10
3.68456e-08
3.39943e-10
3.66558e-08
3.07033e-10
3.6453e-08
3.1954e-10
2.14829e-10
3.43667e-07
1.3153e-10
3.4353e-07
2.42113e-10
3.43342e-07
3.36055e-10
3.43118e-07
4.03386e-10
3.4287e-07
4.45673e-10
3.42608e-07
4.68151e-10
3.42338e-07
4.62326e-10
3.42057e-07
4.26112e-10
3.41775e-07
4.49431e-10
3.41493e-07
5.43548e-10
3.41202e-07
5.73237e-10
3.40922e-07
5.37142e-10
3.40665e-07
4.59e-10
3.40433e-07
3.89728e-10
3.40183e-07
4.21834e-10
3.39891e-07
5.05752e-10
3.39573e-07
5.68435e-10
3.39233e-07
6.38245e-10
3.38883e-07
6.68068e-10
3.38554e-07
6.30168e-10
3.3823e-07
5.96207e-10
3.379e-07
5.8826e-10
3.37567e-07
6.01382e-10
3.37237e-07
6.07089e-10
3.36918e-07
5.86454e-10
3.36587e-07
5.93205e-10
3.36243e-07
5.96984e-10
3.35897e-07
6.02721e-10
3.3555e-07
6.19167e-10
3.35189e-07
6.48036e-10
3.34814e-07
6.65803e-10
3.34424e-07
7.00998e-10
3.34016e-07
7.41971e-10
3.33593e-07
7.64734e-10
3.33168e-07
7.70124e-10
3.32748e-07
7.59016e-10
3.32307e-07
7.87086e-10
3.31829e-07
8.4495e-10
3.31345e-07
8.66649e-10
3.30851e-07
8.93498e-10
3.30321e-07
9.44239e-10
3.29762e-07
9.83379e-10
3.29187e-07
1.01267e-09
3.2858e-07
1.05939e-09
3.27939e-07
1.1232e-09
3.27257e-07
1.20349e-09
3.26522e-07
1.29271e-09
3.25713e-07
1.41374e-09
3.24804e-07
1.58455e-09
3.23802e-07
1.74133e-09
3.22708e-07
1.89779e-09
3.21501e-07
2.12359e-09
3.20168e-07
2.35725e-09
3.18693e-07
2.59799e-09
3.17074e-07
2.84604e-09
3.15295e-07
3.09764e-09
3.13346e-07
3.43812e-09
3.11209e-07
3.83065e-09
3.08895e-07
4.15516e-09
3.06399e-07
4.47151e-09
3.03681e-07
4.87783e-09
3.00749e-07
5.26696e-09
2.97642e-07
5.51113e-09
2.94422e-07
5.79653e-09
2.9104e-07
6.15329e-09
2.87491e-07
6.43194e-09
2.83813e-07
6.65793e-09
2.80055e-07
6.79503e-09
2.76193e-07
7.0158e-09
2.72243e-07
7.18973e-09
2.68286e-07
7.13578e-09
2.64329e-07
7.06639e-09
2.60276e-07
7.31383e-09
2.56133e-07
7.58913e-09
2.52009e-07
7.55865e-09
2.47946e-07
7.35404e-09
2.43931e-07
7.25251e-09
2.39909e-07
7.30153e-09
2.35914e-07
7.23415e-09
2.31935e-07
7.24493e-09
2.28131e-07
6.86188e-09
2.24394e-07
6.74293e-09
2.20688e-07
6.69928e-09
2.17059e-07
6.53421e-09
2.13512e-07
6.3361e-09
2.09959e-07
6.39118e-09
2.06481e-07
6.30239e-09
2.0303e-07
6.2606e-09
1.99654e-07
6.22499e-09
1.96403e-07
5.84485e-09
1.9318e-07
5.81753e-09
1.89964e-07
5.8186e-09
1.86802e-07
5.70751e-09
1.83719e-07
5.60334e-09
1.80722e-07
5.42074e-09
1.77851e-07
5.19784e-09
1.75068e-07
5.01442e-09
1.72357e-07
4.85718e-09
1.69672e-07
4.82426e-09
1.66997e-07
4.88089e-09
1.64393e-07
4.72153e-09
1.6181e-07
4.66646e-09
1.59244e-07
4.67175e-09
1.56894e-07
4.28766e-09
1.54541e-07
4.19144e-09
1.52233e-07
4.1811e-09
1.49994e-07
4.04826e-09
1.47788e-07
3.97519e-09
1.45631e-07
3.88912e-09
1.43547e-07
3.76257e-09
1.41497e-07
3.69721e-09
1.39475e-07
3.67118e-09
1.37552e-07
3.47164e-09
1.3562e-07
3.5015e-09
1.33752e-07
3.38592e-09
1.31906e-07
3.33301e-09
1.30117e-07
3.21544e-09
1.28363e-07
3.18309e-09
1.26688e-07
3.02602e-09
1.25073e-07
2.88735e-09
1.23451e-07
2.93957e-09
1.21894e-07
2.80465e-09
1.20334e-07
2.82832e-09
1.18769e-07
2.85083e-09
1.17255e-07
2.75802e-09
1.15755e-07
2.72725e-09
1.143e-07
2.63451e-09
1.12885e-07
2.57213e-09
1.11516e-07
2.48613e-09
1.10195e-07
2.38342e-09
1.08872e-07
2.39386e-09
1.07586e-07
2.32764e-09
1.06339e-07
2.26155e-09
1.05117e-07
2.22429e-09
1.03933e-07
2.14475e-09
1.02751e-07
2.14992e-09
1.01573e-07
2.14858e-09
1.00423e-07
2.10085e-09
9.93066e-08
2.02767e-09
9.8222e-08
1.97401e-09
9.71578e-08
1.93946e-09
9.61309e-08
1.85711e-09
9.51147e-08
1.84511e-09
9.40937e-08
1.87768e-09
9.31245e-08
1.75034e-09
9.21862e-08
1.70447e-09
9.12395e-08
1.7417e-09
9.03153e-08
1.69186e-09
8.94097e-08
1.64874e-09
8.85261e-08
1.6141e-09
8.76531e-08
1.59876e-09
8.6793e-08
1.57887e-09
8.59707e-08
1.49935e-09
8.51663e-08
1.46402e-09
8.43572e-08
1.47968e-09
8.35695e-08
1.44964e-09
8.27936e-08
1.43261e-09
8.20384e-08
1.3838e-09
8.1306e-08
1.34452e-09
8.05805e-08
1.34646e-09
7.98589e-08
1.33543e-09
7.91506e-08
1.3144e-09
7.84657e-08
1.26313e-09
7.77965e-08
1.23429e-09
7.71221e-08
1.2448e-09
7.64716e-08
1.20104e-09
7.58393e-08
1.17251e-09
7.52239e-08
1.1351e-09
7.46061e-08
1.16278e-09
7.399e-08
1.14652e-09
7.33953e-08
1.11405e-09
7.28241e-08
1.06142e-09
7.22645e-08
1.04751e-09
7.17099e-08
1.03522e-09
7.11604e-08
1.04374e-09
7.062e-08
1.00539e-09
7.00903e-08
9.94398e-10
6.95641e-08
9.84073e-10
6.90541e-08
9.57547e-10
6.85628e-08
9.24243e-10
6.80717e-08
9.24348e-10
6.7594e-08
9.31551e-10
6.71206e-08
8.97404e-10
6.66547e-08
8.79117e-10
6.62035e-08
8.52459e-10
6.57579e-08
8.47332e-10
6.53183e-08
8.38402e-10
6.48922e-08
8.14337e-10
6.44679e-08
8.18178e-10
6.40526e-08
8.09456e-10
6.36501e-08
7.82577e-10
6.32469e-08
7.79731e-10
6.28583e-08
7.42621e-10
6.24806e-08
7.23848e-10
6.21122e-08
7.12336e-10
6.17556e-08
6.88909e-10
6.14008e-08
6.97915e-10
6.10856e-08
6.26501e-10
6.07495e-08
6.63058e-10
4.25961e-10
4.79953e-07
2.27203e-10
4.79761e-07
4.33716e-10
4.79497e-07
6.00642e-10
4.79181e-07
7.18773e-10
4.78833e-07
7.945e-10
4.78463e-07
8.37816e-10
4.78078e-07
8.47216e-10
4.77673e-07
8.3099e-10
4.77259e-07
8.63564e-10
4.76855e-07
9.47397e-10
4.76456e-07
9.72177e-10
4.76067e-07
9.26753e-10
4.75686e-07
8.3982e-10
4.75319e-07
7.56547e-10
4.74947e-07
7.93357e-10
4.74538e-07
9.15197e-10
4.74099e-07
1.00803e-09
4.73645e-07
1.09202e-09
4.73178e-07
1.13467e-09
4.72716e-07
1.09276e-09
4.72266e-07
1.04554e-09
4.71823e-07
1.03204e-09
4.71377e-07
1.04711e-09
4.7093e-07
1.05434e-09
4.70485e-07
1.03169e-09
4.70018e-07
1.06022e-09
4.69521e-07
1.09448e-09
4.69013e-07
1.11073e-09
4.68509e-07
1.12352e-09
4.67995e-07
1.1613e-09
4.67466e-07
1.19481e-09
4.66919e-07
1.24828e-09
4.66344e-07
1.31732e-09
4.65752e-07
1.35707e-09
4.65147e-07
1.37467e-09
4.64522e-07
1.38469e-09
4.63868e-07
1.44048e-09
4.6319e-07
1.52357e-09
4.62491e-07
1.56554e-09
4.61762e-07
1.62183e-09
4.61003e-07
1.70359e-09
4.60193e-07
1.79352e-09
4.59335e-07
1.87038e-09
4.58431e-07
1.96345e-09
4.57463e-07
2.0915e-09
4.56423e-07
2.24362e-09
4.55295e-07
2.4206e-09
4.54054e-07
2.65531e-09
4.52678e-07
2.96046e-09
4.51161e-07
3.25864e-09
4.49492e-07
3.56668e-09
4.47675e-07
3.94029e-09
4.45674e-07
4.35823e-09
4.43467e-07
4.80558e-09
4.41058e-07
5.2552e-09
4.3842e-07
5.73478e-09
4.35552e-07
6.30616e-09
4.32451e-07
6.93215e-09
4.29158e-07
7.44768e-09
4.25643e-07
7.98685e-09
4.21784e-07
8.73797e-09
4.1763e-07
9.4211e-09
4.13291e-07
9.85e-09
4.08822e-07
1.02661e-08
4.04151e-07
1.08247e-08
3.99278e-07
1.13048e-08
3.94228e-07
1.17084e-08
3.8904e-07
1.19833e-08
3.83754e-07
1.23018e-08
3.78372e-07
1.25725e-08
3.72926e-07
1.25818e-08
3.6744e-07
1.25527e-08
3.61883e-07
1.28709e-08
3.56254e-07
1.32186e-08
3.50637e-07
1.3175e-08
3.45074e-07
1.29172e-08
3.39556e-07
1.27715e-08
3.34036e-07
1.28217e-08
3.28545e-07
1.27256e-08
3.23114e-07
1.26763e-08
3.17854e-07
1.21215e-08
3.12698e-07
1.18999e-08
3.07582e-07
1.18156e-08
3.02537e-07
1.15802e-08
2.9759e-07
1.12827e-08
2.92677e-07
1.13045e-08
2.87885e-07
1.10955e-08
2.8314e-07
1.1006e-08
2.78522e-07
1.0843e-08
2.73999e-07
1.03675e-08
2.69517e-07
1.03009e-08
2.65059e-07
1.02763e-08
2.60704e-07
1.00633e-08
2.56454e-07
9.85285e-09
2.52319e-07
9.55607e-09
2.48345e-07
9.17179e-09
2.44467e-07
8.89409e-09
2.40668e-07
8.65621e-09
2.36924e-07
8.56998e-09
2.33243e-07
8.56319e-09
2.2962e-07
8.34549e-09
2.26042e-07
8.24394e-09
2.2253e-07
8.18411e-09
2.19229e-07
7.58917e-09
2.15939e-07
7.48261e-09
2.1274e-07
7.37994e-09
2.09632e-07
7.15706e-09
2.06556e-07
7.05316e-09
2.0355e-07
6.89716e-09
2.00648e-07
6.66614e-09
1.97785e-07
6.56075e-09
1.94978e-07
6.47871e-09
1.92268e-07
6.18173e-09
1.89605e-07
6.16547e-09
1.8701e-07
5.98158e-09
1.84443e-07
5.9014e-09
1.81947e-07
5.71434e-09
1.79504e-07
5.62586e-09
1.77157e-07
5.37452e-09
1.74879e-07
5.16833e-09
1.72622e-07
5.19755e-09
1.70437e-07
4.99036e-09
1.68257e-07
5.00958e-09
1.6609e-07
5.01833e-09
1.6398e-07
4.86846e-09
1.61899e-07
4.80862e-09
1.59873e-07
4.66168e-09
1.57902e-07
4.54433e-09
1.55997e-07
4.39235e-09
1.54146e-07
4.23575e-09
1.523e-07
4.24128e-09
1.50503e-07
4.12678e-09
1.48761e-07
4.00384e-09
1.47054e-07
3.93265e-09
1.45393e-07
3.80657e-09
1.43743e-07
3.8035e-09
1.42104e-07
3.79062e-09
1.40501e-07
3.70871e-09
1.38943e-07
3.58914e-09
1.37427e-07
3.49222e-09
1.35941e-07
3.42606e-09
1.34501e-07
3.30078e-09
1.33078e-07
3.26957e-09
1.31661e-07
3.29539e-09
1.30303e-07
3.11028e-09
1.28984e-07
3.02337e-09
1.27667e-07
3.0604e-09
1.26378e-07
2.98147e-09
1.25113e-07
2.91737e-09
1.23876e-07
2.85346e-09
1.22657e-07
2.81983e-09
1.2146e-07
2.77838e-09
1.20308e-07
2.65486e-09
1.19177e-07
2.59817e-09
1.18048e-07
2.61315e-09
1.16952e-07
2.54983e-09
1.15869e-07
2.51822e-09
1.1481e-07
2.44253e-09
1.13782e-07
2.37506e-09
1.12767e-07
2.36261e-09
1.11762e-07
2.34346e-09
1.10775e-07
2.30566e-09
1.09817e-07
2.22385e-09
1.0888e-07
2.17407e-09
1.0794e-07
2.18739e-09
1.07031e-07
2.11055e-09
1.06145e-07
2.06411e-09
1.05281e-07
2.00134e-09
1.04419e-07
2.02949e-09
1.03561e-07
2.00614e-09
1.0273e-07
1.94943e-09
1.01929e-07
1.86491e-09
1.01144e-07
1.83569e-09
1.00367e-07
1.81818e-09
9.95987e-08
1.8132e-09
9.88452e-08
1.7598e-09
9.81056e-08
1.73797e-09
9.73728e-08
1.72013e-09
9.66597e-08
1.67098e-09
9.59682e-08
1.61803e-09
9.52804e-08
1.61769e-09
9.46094e-08
1.60569e-09
9.39475e-08
1.5607e-09
9.32967e-08
1.53427e-09
9.26645e-08
1.48767e-09
9.20419e-08
1.4736e-09
9.1428e-08
1.45616e-09
9.08288e-08
1.41504e-09
9.02376e-08
1.41135e-09
8.96588e-08
1.39089e-09
8.90935e-08
1.34829e-09
8.85314e-08
1.34664e-09
8.79882e-08
1.28776e-09
8.74592e-08
1.25419e-09
8.69431e-08
1.23267e-09
8.64443e-08
1.18989e-09
8.59482e-08
1.19784e-09
8.55081e-08
1.0691e-09
8.50391e-08
1.13661e-09
7.26138e-10
6.1504e-07
3.51617e-10
6.14789e-07
6.84648e-10
6.14443e-07
9.4615e-10
6.14033e-07
1.12862e-09
6.13581e-07
1.24663e-09
6.13102e-07
1.31666e-09
6.12605e-07
1.34496e-09
6.12086e-07
1.34958e-09
6.11554e-07
1.39548e-09
6.11028e-07
1.47332e-09
6.10514e-07
1.48682e-09
6.10019e-07
1.42123e-09
6.09514e-07
1.34496e-09
6.08992e-07
1.27894e-09
6.08472e-07
1.31322e-09
6.07944e-07
1.44302e-09
6.07386e-07
1.56627e-09
6.06823e-07
1.65455e-09
6.06258e-07
1.70032e-09
6.05665e-07
1.68607e-09
6.05068e-07
1.64219e-09
6.04489e-07
1.61078e-09
6.03921e-07
1.61538e-09
6.03343e-07
1.63262e-09
6.02758e-07
1.61618e-09
6.02163e-07
1.65637e-09
6.01536e-07
1.72089e-09
6.00878e-07
1.76946e-09
6.00197e-07
1.80398e-09
5.99516e-07
1.84266e-09
5.98823e-07
1.88729e-09
5.98109e-07
1.96292e-09
5.97366e-07
2.06034e-09
5.96596e-07
2.12664e-09
5.95796e-07
2.17517e-09
5.94952e-07
2.22911e-09
5.94075e-07
2.31745e-09
5.93169e-07
2.42908e-09
5.92215e-07
2.51972e-09
5.91208e-07
2.62885e-09
5.90155e-07
2.7565e-09
5.89035e-07
2.91437e-09
5.87839e-07
3.06608e-09
5.86565e-07
3.23761e-09
5.85198e-07
3.45809e-09
5.83719e-07
3.72326e-09
5.82098e-07
4.04076e-09
5.80317e-07
4.43661e-09
5.78352e-07
4.92575e-09
5.76189e-07
5.42229e-09
5.73821e-07
5.93431e-09
5.71244e-07
6.51752e-09
5.68435e-07
7.16757e-09
5.65394e-07
7.84679e-09
5.62089e-07
8.5598e-09
5.5849e-07
9.33418e-09
5.54608e-07
1.01879e-08
5.50468e-07
1.10726e-08
5.46095e-07
1.18202e-08
5.41453e-07
1.26297e-08
5.36464e-07
1.37265e-08
5.3118e-07
1.4705e-08
5.25676e-07
1.53539e-08
5.19978e-07
1.59651e-08
5.14091e-07
1.67117e-08
5.07989e-07
1.74066e-08
5.01651e-07
1.80472e-08
4.95148e-07
1.84866e-08
4.88535e-07
1.89151e-08
4.81837e-07
1.92701e-08
4.75036e-07
1.93834e-08
4.68124e-07
1.9465e-08
4.61165e-07
1.98304e-08
4.54182e-07
2.02013e-08
4.47212e-07
2.01455e-08
4.40239e-07
1.98912e-08
4.33291e-07
1.97191e-08
4.26402e-07
1.97109e-08
4.19542e-07
1.95854e-08
4.12755e-07
1.94644e-08
4.06127e-07
1.87503e-08
3.99619e-07
1.84079e-08
3.9316e-07
1.82749e-08
3.86787e-07
1.79531e-08
3.80518e-07
1.75517e-08
3.74311e-07
1.75124e-08
3.68258e-07
1.71485e-08
3.62295e-07
1.697e-08
3.5647e-07
1.66671e-08
3.50704e-07
1.61344e-08
3.4501e-07
1.59945e-08
3.39386e-07
1.59018e-08
3.33886e-07
1.55631e-08
3.28513e-07
1.52255e-08
3.23283e-07
1.47862e-08
3.18223e-07
1.42338e-08
3.13282e-07
1.38345e-08
3.08447e-07
1.34934e-08
3.03671e-07
1.33476e-08
2.99e-07
1.32345e-08
2.94386e-07
1.29609e-08
2.89842e-07
1.27883e-08
2.8541e-07
1.26174e-08
2.81143e-07
1.18566e-08
2.76953e-07
1.16742e-08
2.72893e-07
1.14403e-08
2.68917e-07
1.11342e-08
2.64994e-07
1.09768e-08
2.61165e-07
1.0727e-08
2.57449e-07
1.03823e-08
2.53797e-07
1.02148e-08
2.5022e-07
1.00563e-08
2.4674e-07
9.66214e-09
2.4336e-07
9.54781e-09
2.40047e-07
9.29774e-09
2.36771e-07
9.17792e-09
2.33578e-07
8.9081e-09
2.30456e-07
8.74923e-09
2.2744e-07
8.3921e-09
2.24506e-07
8.10343e-09
2.21622e-07
8.08213e-09
2.18815e-07
7.79983e-09
2.16025e-07
7.79981e-09
2.13265e-07
7.77897e-09
2.10567e-07
7.56684e-09
2.07913e-07
7.46483e-09
2.05321e-07
7.254e-09
2.028e-07
7.06709e-09
2.00363e-07
6.83138e-09
1.97985e-07
6.61529e-09
1.95621e-07
6.60831e-09
1.9332e-07
6.42939e-09
1.91087e-07
6.23818e-09
1.88899e-07
6.123e-09
1.86762e-07
5.94665e-09
1.84646e-07
5.9203e-09
1.82551e-07
5.88723e-09
1.805e-07
5.76155e-09
1.78505e-07
5.58426e-09
1.7656e-07
5.43772e-09
1.74656e-07
5.33213e-09
1.72803e-07
5.15407e-09
1.70978e-07
5.0965e-09
1.69169e-07
5.10622e-09
1.67424e-07
4.85602e-09
1.65726e-07
4.72316e-09
1.6404e-07
4.74919e-09
1.62388e-07
4.63465e-09
1.60766e-07
4.54104e-09
1.59177e-07
4.44413e-09
1.57615e-07
4.38191e-09
1.56082e-07
4.31157e-09
1.546e-07
4.13762e-09
1.53146e-07
4.05605e-09
1.51699e-07
4.06109e-09
1.50296e-07
3.95296e-09
1.48906e-07
3.90844e-09
1.47546e-07
3.80477e-09
1.46223e-07
3.69886e-09
1.44919e-07
3.66875e-09
1.43633e-07
3.63225e-09
1.42369e-07
3.57447e-09
1.41137e-07
3.45669e-09
1.39931e-07
3.38144e-09
1.38728e-07
3.39214e-09
1.37564e-07
3.2769e-09
1.36425e-07
3.20579e-09
1.35313e-07
3.11526e-09
1.34208e-07
3.1346e-09
1.3311e-07
3.10923e-09
1.32043e-07
3.01884e-09
1.31013e-07
2.89796e-09
1.30003e-07
2.84764e-09
1.29004e-07
2.81829e-09
1.28018e-07
2.802e-09
1.27051e-07
2.72816e-09
1.26102e-07
2.69052e-09
1.25165e-07
2.66182e-09
1.24249e-07
2.58801e-09
1.23357e-07
2.5121e-09
1.22473e-07
2.50524e-09
1.21609e-07
2.47098e-09
1.20759e-07
2.41196e-09
1.19924e-07
2.37278e-09
1.19111e-07
2.30427e-09
1.18312e-07
2.2747e-09
1.17524e-07
2.24923e-09
1.16752e-07
2.19343e-09
1.15995e-07
2.16903e-09
1.15253e-07
2.13759e-09
1.14525e-07
2.07747e-09
1.13805e-07
2.06999e-09
1.13107e-07
1.98646e-09
1.12427e-07
1.93843e-09
1.11763e-07
1.89694e-09
1.11123e-07
1.83363e-09
1.10486e-07
1.84235e-09
1.09921e-07
1.63757e-09
1.0932e-07
1.74448e-09
1.1067e-09
7.4856e-07
5.18319e-10
7.4824e-07
1.00423e-09
7.47807e-07
1.37955e-09
7.47298e-07
1.63804e-09
7.46738e-07
1.8057e-09
7.46148e-07
1.90704e-09
7.45538e-07
1.95509e-09
7.44915e-07
1.97209e-09
7.44285e-07
2.02588e-09
7.43642e-07
2.11693e-09
7.42997e-07
2.13138e-09
7.42369e-07
2.04874e-09
7.41741e-07
1.97373e-09
7.411e-07
1.92005e-09
7.40435e-07
1.97806e-09
7.39758e-07
2.11958e-09
7.39072e-07
2.25316e-09
7.38374e-07
2.35251e-09
7.37678e-07
2.39546e-09
7.3697e-07
2.39435e-09
7.36251e-07
2.36142e-09
7.3554e-07
2.32177e-09
7.34843e-07
2.31202e-09
7.34131e-07
2.34544e-09
7.33382e-07
2.36526e-09
7.32617e-07
2.42167e-09
7.31841e-07
2.49653e-09
7.31051e-07
2.55927e-09
7.30223e-07
2.63305e-09
7.29369e-07
2.69619e-09
7.285e-07
2.75632e-09
7.27614e-07
2.84955e-09
7.26685e-07
2.98961e-09
7.25694e-07
3.11769e-09
7.2465e-07
3.21858e-09
7.23558e-07
3.3215e-09
7.22418e-07
3.45799e-09
7.21224e-07
3.62259e-09
7.19979e-07
3.76479e-09
7.18652e-07
3.95641e-09
7.17228e-07
4.18018e-09
7.15707e-07
4.43572e-09
7.14081e-07
4.69206e-09
7.12332e-07
4.98634e-09
7.10437e-07
5.35317e-09
7.08372e-07
5.78853e-09
7.06115e-07
6.29763e-09
7.03644e-07
6.90687e-09
7.00951e-07
7.61925e-09
6.97996e-07
8.37709e-09
6.94771e-07
9.16029e-09
6.91293e-07
9.99516e-09
6.87544e-07
1.09172e-08
6.83516e-07
1.18744e-08
6.79173e-07
1.29033e-08
6.74523e-07
1.39841e-08
6.69582e-07
1.5129e-08
6.64365e-07
1.62894e-08
6.58873e-07
1.73126e-08
6.53087e-07
1.84163e-08
6.46995e-07
1.98182e-08
6.40626e-07
2.10745e-08
6.34002e-07
2.19785e-08
6.27161e-07
2.28056e-08
6.2012e-07
2.37537e-08
6.12843e-07
2.46835e-08
6.05371e-07
2.55191e-08
5.97727e-07
2.61309e-08
5.89928e-07
2.67142e-08
5.82008e-07
2.71903e-08
5.73975e-07
2.74162e-08
5.65843e-07
2.75975e-08
5.57636e-07
2.80376e-08
5.49415e-07
2.84221e-08
5.4121e-07
2.83509e-08
5.32982e-07
2.81193e-08
5.2477e-07
2.79315e-08
5.1662e-07
2.78606e-08
5.08508e-07
2.76978e-08
5.00483e-07
2.74894e-08
4.92601e-07
2.66322e-08
4.84821e-07
2.61882e-08
4.77105e-07
2.59908e-08
4.69521e-07
2.55371e-08
4.62026e-07
2.50488e-08
4.54603e-07
2.49348e-08
4.47363e-07
2.43887e-08
4.40254e-07
2.408e-08
4.3328e-07
2.36414e-08
4.26342e-07
2.3074e-08
4.1949e-07
2.28477e-08
4.1275e-07
2.2642e-08
4.06162e-07
2.21516e-08
3.9972e-07
2.16673e-08
3.93431e-07
2.10758e-08
3.87322e-07
2.03431e-08
3.81364e-07
1.97922e-08
3.75529e-07
1.93291e-08
3.69775e-07
1.91032e-08
3.64134e-07
1.88752e-08
3.58566e-07
1.85306e-08
3.531e-07
1.82559e-08
3.47765e-07
1.79526e-08
3.42587e-07
1.70358e-08
3.37525e-07
1.67373e-08
3.32604e-07
1.63613e-08
3.27778e-07
1.59605e-08
3.23033e-07
1.57248e-08
3.18401e-07
1.53591e-08
3.1389e-07
1.48934e-08
3.09467e-07
1.46391e-08
3.05138e-07
1.43868e-08
3.00908e-07
1.38931e-08
2.96813e-07
1.36437e-08
2.92791e-07
1.33203e-08
2.8883e-07
1.31396e-08
2.84961e-07
1.27773e-08
2.81172e-07
1.25401e-08
2.77496e-07
1.20686e-08
2.73917e-07
1.16825e-08
2.70413e-07
1.15865e-08
2.6699e-07
1.12231e-08
2.63603e-07
1.1187e-08
2.60259e-07
1.11242e-08
2.56979e-07
1.08466e-08
2.53758e-07
1.06875e-08
2.50611e-07
1.04049e-08
2.47548e-07
1.01303e-08
2.44581e-07
9.80113e-09
2.4168e-07
9.51856e-09
2.38809e-07
9.48041e-09
2.36013e-07
9.22586e-09
2.33293e-07
8.9583e-09
2.30627e-07
8.79277e-09
2.28019e-07
8.5564e-09
2.25443e-07
8.49846e-09
2.22896e-07
8.4351e-09
2.20402e-07
8.25644e-09
2.17976e-07
8.01291e-09
2.15606e-07
7.80971e-09
2.13285e-07
7.65388e-09
2.11023e-07
7.41832e-09
2.08798e-07
7.32265e-09
2.06602e-07
7.30399e-09
2.04474e-07
6.98582e-09
2.02398e-07
6.80125e-09
2.00346e-07
6.80298e-09
1.98334e-07
6.64676e-09
1.96358e-07
6.51918e-09
1.94419e-07
6.38632e-09
1.92516e-07
6.2852e-09
1.9065e-07
6.17987e-09
1.8884e-07
5.95324e-09
1.87064e-07
5.8359e-09
1.85302e-07
5.82387e-09
1.83591e-07
5.6648e-09
1.81898e-07
5.60322e-09
1.80239e-07
5.4665e-09
1.78622e-07
5.32102e-09
1.7703e-07
5.26581e-09
1.75465e-07
5.19939e-09
1.73925e-07
5.11806e-09
1.72421e-07
4.96353e-09
1.70947e-07
4.85795e-09
1.69484e-07
4.85827e-09
1.68064e-07
4.69897e-09
1.66673e-07
4.59628e-09
1.65315e-07
4.48134e-09
1.63967e-07
4.48849e-09
1.6263e-07
4.44884e-09
1.61329e-07
4.32389e-09
1.6007e-07
4.15967e-09
1.58835e-07
4.08539e-09
1.57615e-07
4.04389e-09
1.56412e-07
4.00781e-09
1.55234e-07
3.90981e-09
1.54076e-07
3.85157e-09
1.52934e-07
3.80664e-09
1.51817e-07
3.70832e-09
1.50726e-07
3.60384e-09
1.49647e-07
3.5874e-09
1.4859e-07
3.52933e-09
1.47552e-07
3.45314e-09
1.46534e-07
3.39383e-09
1.4554e-07
3.29966e-09
1.44566e-07
3.25267e-09
1.43605e-07
3.21365e-09
1.4266e-07
3.1414e-09
1.41738e-07
3.09391e-09
1.40834e-07
3.04484e-09
1.39942e-07
2.97229e-09
1.39065e-07
2.95005e-09
1.38213e-07
2.84139e-09
1.37382e-07
2.77302e-09
1.36571e-07
2.71321e-09
1.35789e-07
2.61804e-09
1.35012e-07
2.62209e-09
1.34323e-07
2.32855e-09
1.33589e-07
2.48258e-09
1.57376e-09
8.80106e-07
7.29518e-10
8.79712e-07
1.39787e-09
8.79185e-07
1.90607e-09
8.78572e-07
2.2511e-09
8.77903e-07
2.47488e-09
8.77199e-07
2.61129e-09
8.76475e-07
2.67943e-09
8.75748e-07
2.69854e-09
8.75019e-07
2.75519e-09
8.74271e-07
2.8649e-09
8.73531e-07
2.87137e-09
8.72803e-07
2.77713e-09
8.72059e-07
2.71741e-09
8.71271e-07
2.7092e-09
8.70441e-07
2.80757e-09
8.69625e-07
2.93608e-09
8.68798e-07
3.07993e-09
8.67958e-07
3.19275e-09
8.67138e-07
3.21598e-09
8.66312e-07
3.22007e-09
8.65448e-07
3.22541e-09
8.64572e-07
3.19774e-09
8.63693e-07
3.19095e-09
8.62816e-07
3.22275e-09
8.61914e-07
3.26667e-09
8.60995e-07
3.34158e-09
8.60074e-07
3.41665e-09
8.5913e-07
3.50372e-09
8.58128e-07
3.6352e-09
8.57081e-07