/*--------------------------------*- C++ -*----------------------------------*\
| =========                 |                                                 |
| \\      /  F ield         | OpenFOAM: The Open Source CFD Toolbox           |
|  \\    /   O peration     | Version:  1.7.0                                 |
|   \\  /    A nd           | Web:      www.OpenFOAM.com                      |
|    \\/     M anipulation  |                                                 |
\*---------------------------------------------------------------------------*/
FoamFile
{
    version     2.0;
    format      ascii;
    class       volScalarField;
    location    "0.252";
    object      rho;
}
// * * * * * * * * * * * * * * * * * * * * * * * * * * * * * * * * * * * * * //

dimensions      [1 -3 0 0 0 0 0];

internalField   nonuniform List<scalar> 
14800
(
1.28433
1.28433
1.28433
1.28433
1.28433
1.28433
1.28433
1.28433
1.28433
1.28433
1.28433
1.28433
1.28433
1.28433
1.28433
1.28433
1.28433
1.28433
1.28433
1.28433
1.28433
1.28433
1.28433
1.28433
1.28433
1.28433
1.28433
1.28433
1.28433
1.28433
1.28433
1.28433
1.28433
1.28432
1.28432
1.28432
1.28431
1.2843
1.28429
1.28428
1.28427
1.28424
1.28422
1.28419
1.28415
1.2841
1.28404
1.28397
1.28388
1.28377
1.28363
1.28347
1.28328
1.28304
1.28277
1.28244
1.28206
1.28161
1.28111
1.28051
1.27984
1.27911
1.27827
1.27736
1.27638
1.2753
1.27418
1.27295
1.27169
1.27039
1.26903
1.26763
1.2662
1.26473
1.26326
1.26181
1.2603
1.25879
1.25727
1.25575
1.25425
1.25279
1.25132
1.24983
1.24833
1.24689
1.24553
1.24406
1.24265
1.24132
1.23994
1.23859
1.2373
1.23599
1.2348
1.2335
1.23232
1.23113
1.22993
1.2288
1.22769
1.22657
1.2255
1.22439
1.22335
1.22235
1.22132
1.22033
1.21942
1.21846
1.21751
1.21661
1.21573
1.21485
1.214
1.21316
1.21237
1.21155
1.21078
1.21
1.20922
1.20852
1.20779
1.20709
1.20642
1.20573
1.20507
1.20444
1.2038
1.20318
1.20256
1.20197
1.2014
1.20083
1.20026
1.19972
1.19917
1.19865
1.19813
1.19761
1.19712
1.19664
1.19616
1.19569
1.19525
1.19478
1.19435
1.19392
1.1935
1.19309
1.19267
1.19227
1.19188
1.1915
1.19111
1.19074
1.19037
1.19002
1.18967
1.18932
1.18899
1.18865
1.18833
1.18801
1.1877
1.18739
1.18709
1.1868
1.1865
1.18621
1.18592
1.18565
1.18537
1.18511
1.18484
1.18459
1.18432
1.18407
1.18381
1.18356
1.18332
1.18308
1.18284
1.1826
1.18236
1.18213
1.1819
1.18167
1.18145
1.18122
1.181
1.18077
1.18056
1.18035
1.18014
1.17993
1.17972
1.17953
1.17934
1.17915
1.28433
1.28433
1.28433
1.28433
1.28433
1.28433
1.28433
1.28433
1.28433
1.28433
1.28433
1.28433
1.28433
1.28433
1.28433
1.28433
1.28433
1.28433
1.28433
1.28433
1.28433
1.28433
1.28433
1.28433
1.28433
1.28433
1.28433
1.28433
1.28433
1.28433
1.28433
1.28433
1.28433
1.28432
1.28432
1.28431
1.28431
1.2843
1.28429
1.28427
1.28425
1.28423
1.2842
1.28417
1.28413
1.28407
1.28401
1.28393
1.28383
1.28371
1.28357
1.2834
1.28319
1.28295
1.28266
1.28232
1.28192
1.28146
1.28093
1.28033
1.27965
1.2789
1.27805
1.27713
1.27613
1.27506
1.27392
1.27272
1.27145
1.27015
1.26879
1.2674
1.26597
1.26453
1.26305
1.26158
1.26007
1.25858
1.25707
1.25556
1.25405
1.25259
1.2511
1.24961
1.24814
1.24671
1.2453
1.24388
1.24247
1.24112
1.23978
1.23844
1.23714
1.23587
1.23461
1.23336
1.23216
1.23097
1.22979
1.22865
1.22754
1.22642
1.22534
1.22427
1.22323
1.22221
1.22121
1.22022
1.21927
1.21833
1.2174
1.2165
1.21561
1.21475
1.2139
1.21306
1.21226
1.21145
1.21068
1.20991
1.20915
1.20843
1.20771
1.20702
1.20633
1.20566
1.205
1.20436
1.20372
1.2031
1.20249
1.2019
1.20132
1.20075
1.20019
1.19964
1.1991
1.19858
1.19806
1.19755
1.19706
1.19658
1.1961
1.19563
1.19518
1.19473
1.19429
1.19386
1.19344
1.19302
1.19261
1.19221
1.19182
1.19143
1.19105
1.19068
1.19031
1.18996
1.1896
1.18926
1.18893
1.1886
1.18827
1.18795
1.18764
1.18733
1.18703
1.18673
1.18644
1.18615
1.18587
1.18559
1.18531
1.18504
1.18478
1.18452
1.18426
1.184
1.18375
1.1835
1.18325
1.18301
1.18277
1.18253
1.1823
1.18206
1.18183
1.1816
1.18137
1.18115
1.18093
1.18071
1.18049
1.18028
1.18007
1.17986
1.17966
1.17946
1.17927
1.17909
1.28433
1.28433
1.28433
1.28433
1.28433
1.28433
1.28433
1.28433
1.28433
1.28433
1.28433
1.28433
1.28433
1.28433
1.28433
1.28433
1.28433
1.28433
1.28433
1.28433
1.28433
1.28433
1.28433
1.28433
1.28433
1.28433
1.28433
1.28433
1.28433
1.28433
1.28433
1.28432
1.28432
1.28432
1.28431
1.28431
1.2843
1.28429
1.28427
1.28425
1.28423
1.2842
1.28417
1.28413
1.28407
1.28401
1.28393
1.28384
1.28372
1.28359
1.28342
1.28323
1.283
1.28272
1.2824
1.28203
1.2816
1.28111
1.28055
1.27992
1.27922
1.27844
1.27758
1.27666
1.27565
1.27458
1.27344
1.27224
1.27098
1.26968
1.26834
1.26695
1.26554
1.2641
1.26265
1.26118
1.25969
1.25821
1.25672
1.25522
1.25373
1.25226
1.25078
1.24931
1.24786
1.24644
1.24502
1.24361
1.24224
1.24088
1.23955
1.23822
1.23693
1.23567
1.23441
1.23317
1.23197
1.23079
1.22962
1.22848
1.22737
1.22626
1.22519
1.22412
1.22309
1.22207
1.22108
1.22011
1.21915
1.21821
1.21729
1.21639
1.21551
1.21464
1.2138
1.21297
1.21216
1.21136
1.21059
1.20982
1.20908
1.20835
1.20764
1.20694
1.20626
1.20559
1.20493
1.20429
1.20366
1.20304
1.20243
1.20184
1.20126
1.20069
1.20013
1.19958
1.19905
1.19852
1.19801
1.1975
1.19701
1.19653
1.19605
1.19559
1.19513
1.19468
1.19424
1.19381
1.19339
1.19298
1.19257
1.19217
1.19177
1.19139
1.19101
1.19064
1.19027
1.18992
1.18957
1.18922
1.18888
1.18856
1.18823
1.18791
1.1876
1.18729
1.18699
1.18669
1.1864
1.18611
1.18583
1.18555
1.18527
1.185
1.18474
1.18448
1.18422
1.18396
1.18371
1.18346
1.18321
1.18297
1.18273
1.18249
1.18225
1.18202
1.18179
1.18156
1.18133
1.18111
1.18089
1.18067
1.18045
1.18023
1.18002
1.17982
1.17962
1.17942
1.17922
1.17905
1.28433
1.28433
1.28433
1.28433
1.28433
1.28433
1.28433
1.28433
1.28433
1.28433
1.28433
1.28433
1.28433
1.28433
1.28433
1.28433
1.28433
1.28433
1.28433
1.28433
1.28433
1.28433
1.28433
1.28433
1.28433
1.28433
1.28433
1.28433
1.28433
1.28432
1.28432
1.28432
1.28431
1.28431
1.2843
1.28429
1.28428
1.28426
1.28424
1.28422
1.28419
1.28415
1.28411
1.28405
1.28398
1.2839
1.2838
1.28368
1.28354
1.28338
1.28318
1.28295
1.28268
1.28236
1.282
1.28158
1.28111
1.28057
1.27997
1.27931
1.27857
1.27776
1.27688
1.27594
1.27492
1.27385
1.27271
1.27152
1.27028
1.26899
1.26767
1.2663
1.26491
1.26349
1.26206
1.26062
1.25915
1.25768
1.25621
1.25474
1.25327
1.25181
1.25036
1.24891
1.24748
1.24607
1.24467
1.24328
1.24192
1.24058
1.23925
1.23794
1.23666
1.23541
1.23416
1.23294
1.23175
1.23057
1.22942
1.22828
1.22717
1.22608
1.22501
1.22396
1.22293
1.22192
1.22093
1.21996
1.21901
1.21808
1.21716
1.21626
1.21539
1.21453
1.21369
1.21286
1.21206
1.21126
1.21049
1.20974
1.20899
1.20827
1.20756
1.20686
1.20618
1.20551
1.20486
1.20422
1.20359
1.20297
1.20237
1.20178
1.2012
1.20063
1.20007
1.19953
1.19899
1.19847
1.19796
1.19745
1.19696
1.19648
1.196
1.19554
1.19508
1.19464
1.1942
1.19377
1.19335
1.19294
1.19253
1.19213
1.19173
1.19135
1.19097
1.1906
1.19024
1.18988
1.18953
1.18919
1.18885
1.18852
1.1882
1.18788
1.18756
1.18726
1.18695
1.18666
1.18637
1.18608
1.18579
1.18551
1.18524
1.18497
1.18471
1.18445
1.18419
1.18393
1.18367
1.18342
1.18318
1.18294
1.1827
1.18246
1.18222
1.18199
1.18175
1.18152
1.1813
1.18108
1.18086
1.18063
1.18042
1.1802
1.17999
1.17979
1.17959
1.17939
1.17919
1.17902
1.28433
1.28433
1.28433
1.28433
1.28433
1.28433
1.28433
1.28433
1.28433
1.28433
1.28433
1.28433
1.28433
1.28433
1.28433
1.28433
1.28433
1.28433
1.28433
1.28433
1.28433
1.28433
1.28433
1.28433
1.28433
1.28433
1.28433
1.28432
1.28432
1.28432
1.28431
1.28431
1.2843
1.28429
1.28428
1.28427
1.28425
1.28423
1.2842
1.28416
1.28412
1.28407
1.28401
1.28393
1.28384
1.28373
1.2836
1.28345
1.28327
1.28306
1.28282
1.28253
1.28221
1.28184
1.28142
1.28094
1.28042
1.27983
1.27918
1.27847
1.27769
1.27685
1.27595
1.275
1.27398
1.2729
1.27177
1.27059
1.26937
1.2681
1.2668
1.26546
1.2641
1.26271
1.26131
1.25989
1.25846
1.25702
1.25558
1.25413
1.25269
1.25126
1.24983
1.2484
1.247
1.24561
1.24423
1.24286
1.24152
1.2402
1.23889
1.2376
1.23634
1.23509
1.23386
1.23266
1.23147
1.2303
1.22917
1.22804
1.22694
1.22586
1.2248
1.22375
1.22274
1.22173
1.22075
1.21979
1.21885
1.21792
1.21702
1.21612
1.21525
1.2144
1.21356
1.21274
1.21194
1.21116
1.21039
1.20963
1.2089
1.20817
1.20747
1.20678
1.2061
1.20543
1.20478
1.20414
1.20352
1.2029
1.2023
1.20171
1.20114
1.20057
1.20001
1.19947
1.19894
1.19841
1.1979
1.1974
1.19691
1.19643
1.19596
1.19549
1.19504
1.19459
1.19416
1.19373
1.19331
1.19289
1.19249
1.19209
1.1917
1.19131
1.19093
1.19056
1.1902
1.18984
1.1895
1.18915
1.18882
1.18849
1.18816
1.18785
1.18753
1.18723
1.18692
1.18663
1.18634
1.18605
1.18576
1.18548
1.18521
1.18494
1.18468
1.18442
1.18416
1.1839
1.18364
1.18339
1.18315
1.18291
1.18267
1.18243
1.18219
1.18196
1.18173
1.1815
1.18127
1.18105
1.18083
1.18061
1.18039
1.18018
1.17997
1.17976
1.17956
1.17936
1.17916
1.17899
1.28433
1.28433
1.28433
1.28433
1.28433
1.28433
1.28433
1.28433
1.28433
1.28433
1.28433
1.28433
1.28433
1.28433
1.28433
1.28433
1.28433
1.28433
1.28433
1.28433
1.28433
1.28433
1.28433
1.28433
1.28433
1.28432
1.28432
1.28432
1.28431
1.28431
1.2843
1.28429
1.28428
1.28427
1.28425
1.28423
1.2842
1.28416
1.28412
1.28407
1.28401
1.28394
1.28385
1.28375
1.28362
1.28348
1.28331
1.28311
1.28288
1.28261
1.28231
1.28196
1.28157
1.28113
1.28065
1.2801
1.27951
1.27886
1.27816
1.27741
1.27659
1.27572
1.2748
1.27383
1.27281
1.27174
1.27062
1.26946
1.26825
1.26701
1.26574
1.26444
1.26311
1.26176
1.26039
1.25901
1.25761
1.25621
1.2548
1.25339
1.25198
1.25059
1.24919
1.2478
1.24642
1.24505
1.2437
1.24236
1.24104
1.23974
1.23846
1.23719
1.23594
1.23472
1.2335
1.23231
1.23115
1.23
1.22887
1.22776
1.22667
1.2256
1.22455
1.22352
1.22251
1.22152
1.22055
1.2196
1.21866
1.21774
1.21684
1.21596
1.2151
1.21425
1.21342
1.21261
1.21181
1.21103
1.21027
1.20952
1.20879
1.20807
1.20736
1.20668
1.206
1.20534
1.20469
1.20406
1.20343
1.20282
1.20223
1.20164
1.20106
1.2005
1.19995
1.19941
1.19888
1.19835
1.19784
1.19734
1.19686
1.19638
1.19591
1.19544
1.19499
1.19455
1.19411
1.19368
1.19326
1.19285
1.19245
1.19205
1.19166
1.19127
1.19089
1.19052
1.19016
1.18981
1.18946
1.18912
1.18878
1.18845
1.18813
1.18781
1.1875
1.1872
1.18689
1.1866
1.18631
1.18602
1.18574
1.18546
1.18518
1.18491
1.18465
1.18439
1.18413
1.18387
1.18362
1.18337
1.18312
1.18288
1.18264
1.1824
1.18217
1.18193
1.1817
1.18147
1.18125
1.18102
1.1808
1.18058
1.18036
1.18015
1.17994
1.17974
1.17953
1.17933
1.17914
1.17896
1.28433
1.28433
1.28433
1.28433
1.28433
1.28433
1.28433
1.28433
1.28433
1.28433
1.28433
1.28433
1.28433
1.28433
1.28433
1.28433
1.28433
1.28433
1.28433
1.28433
1.28433
1.28433
1.28432
1.28432
1.28432
1.28432
1.28431
1.28431
1.2843
1.28429
1.28428
1.28427
1.28425
1.28422
1.2842
1.28416
1.28412
1.28407
1.28401
1.28393
1.28384
1.28374
1.28362
1.28347
1.2833
1.28311
1.28288
1.28262
1.28232
1.28199
1.28161
1.28119
1.28072
1.28021
1.27965
1.27904
1.27838
1.27768
1.27693
1.27613
1.27528
1.27439
1.27345
1.27247
1.27145
1.27038
1.26928
1.26814
1.26696
1.26575
1.26451
1.26325
1.26196
1.26065
1.25932
1.25798
1.25663
1.25527
1.2539
1.25254
1.25117
1.2498
1.24844
1.24709
1.24575
1.24441
1.24309
1.24178
1.24049
1.23922
1.23795
1.23671
1.23549
1.23428
1.23309
1.23192
1.23077
1.22964
1.22853
1.22744
1.22636
1.22531
1.22427
1.22325
1.22226
1.22128
1.22031
1.21937
1.21845
1.21754
1.21665
1.21578
1.21492
1.21408
1.21326
1.21245
1.21166
1.21089
1.21013
1.20939
1.20866
1.20795
1.20725
1.20657
1.20589
1.20524
1.20459
1.20396
1.20334
1.20274
1.20214
1.20156
1.20098
1.20042
1.19987
1.19934
1.19881
1.19829
1.19778
1.19728
1.1968
1.19632
1.19585
1.19539
1.19494
1.1945
1.19406
1.19363
1.19322
1.19281
1.1924
1.192
1.19161
1.19123
1.19085
1.19049
1.19012
1.18977
1.18942
1.18908
1.18875
1.18842
1.1881
1.18778
1.18747
1.18716
1.18686
1.18657
1.18628
1.18599
1.18571
1.18543
1.18515
1.18489
1.18462
1.18436
1.1841
1.18384
1.18359
1.18334
1.1831
1.18285
1.18262
1.18238
1.18214
1.18191
1.18168
1.18145
1.18122
1.181
1.18078
1.18056
1.18034
1.18013
1.17992
1.17971
1.17951
1.17931
1.17912
1.17894
1.28433
1.28433
1.28433
1.28433
1.28433
1.28433
1.28433
1.28433
1.28433
1.28433
1.28433
1.28433
1.28433
1.28433
1.28433
1.28433
1.28433
1.28433
1.28433
1.28433
1.28432
1.28432
1.28432
1.28432
1.28431
1.28431
1.2843
1.28429
1.28428
1.28426
1.28424
1.28422
1.28419
1.28415
1.28411
1.28406
1.28399
1.28392
1.28382
1.28372
1.28359
1.28344
1.28327
1.28307
1.28284
1.28258
1.28228
1.28194
1.28157
1.28115
1.28069
1.28019
1.27965
1.27906
1.27842
1.27775
1.27703
1.27627
1.27547
1.27464
1.27376
1.27285
1.2719
1.27091
1.2699
1.26884
1.26776
1.26664
1.2655
1.26432
1.26313
1.26191
1.26066
1.2594
1.25812
1.25682
1.25552
1.25421
1.25289
1.25156
1.25024
1.24892
1.2476
1.24628
1.24498
1.24368
1.2424
1.24112
1.23986
1.23862
1.23739
1.23617
1.23497
1.23379
1.23263
1.23148
1.23035
1.22924
1.22815
1.22707
1.22601
1.22498
1.22395
1.22295
1.22197
1.221
1.22005
1.21912
1.21821
1.21731
1.21643
1.21557
1.21472
1.21389
1.21308
1.21228
1.2115
1.21073
1.20998
1.20924
1.20852
1.20781
1.20712
1.20644
1.20578
1.20512
1.20448
1.20386
1.20324
1.20264
1.20205
1.20147
1.2009
1.20034
1.19979
1.19926
1.19873
1.19822
1.19771
1.19722
1.19673
1.19626
1.19579
1.19533
1.19488
1.19444
1.19401
1.19358
1.19317
1.19276
1.19235
1.19196
1.19157
1.19119
1.19081
1.19044
1.19008
1.18973
1.18939
1.18905
1.18871
1.18838
1.18806
1.18775
1.18744
1.18713
1.18683
1.18654
1.18625
1.18596
1.18568
1.1854
1.18513
1.18486
1.18459
1.18433
1.18407
1.18382
1.18356
1.18332
1.18307
1.18283
1.18259
1.18235
1.18212
1.18188
1.18165
1.18142
1.1812
1.18098
1.18076
1.18054
1.18032
1.18011
1.1799
1.17969
1.17949
1.17929
1.1791
1.17892
1.28433
1.28433
1.28433
1.28433
1.28433
1.28433
1.28433
1.28433
1.28433
1.28433
1.28433
1.28433
1.28433
1.28433
1.28433
1.28433
1.28433
1.28433
1.28432
1.28432
1.28432
1.28432
1.28431
1.28431
1.2843
1.28429
1.28428
1.28426
1.28424
1.28421
1.28418
1.28414
1.2841
1.28404
1.28397
1.28389
1.28379
1.28368
1.28354
1.28339
1.28321
1.283
1.28276
1.28249
1.28218
1.28184
1.28146
1.28104
1.28057
1.28007
1.27953
1.27894
1.27832
1.27766
1.27696
1.27622
1.27545
1.27465
1.27381
1.27295
1.27205
1.27112
1.27017
1.26919
1.26818
1.26714
1.26609
1.265
1.26389
1.26276
1.2616
1.26042
1.25923
1.25801
1.25679
1.25554
1.25429
1.25303
1.25176
1.25049
1.24921
1.24794
1.24666
1.24539
1.24413
1.24288
1.24163
1.24039
1.23917
1.23795
1.23675
1.23557
1.2344
1.23325
1.23211
1.23099
1.22988
1.22879
1.22772
1.22667
1.22563
1.22461
1.2236
1.22262
1.22165
1.2207
1.21976
1.21885
1.21795
1.21706
1.21619
1.21534
1.2145
1.21368
1.21288
1.21209
1.21131
1.21055
1.20981
1.20908
1.20837
1.20767
1.20698
1.20631
1.20565
1.205
1.20436
1.20374
1.20313
1.20253
1.20194
1.20137
1.2008
1.20025
1.19971
1.19917
1.19865
1.19814
1.19764
1.19714
1.19666
1.19619
1.19572
1.19527
1.19482
1.19438
1.19395
1.19353
1.19311
1.1927
1.1923
1.19191
1.19152
1.19114
1.19077
1.1904
1.19004
1.18969
1.18934
1.18901
1.18867
1.18835
1.18803
1.18771
1.1874
1.1871
1.1868
1.1865
1.18621
1.18593
1.18565
1.18537
1.1851
1.18483
1.18457
1.18431
1.18405
1.18379
1.18354
1.18329
1.18304
1.1828
1.18257
1.18233
1.18209
1.18186
1.18163
1.1814
1.18117
1.18095
1.18073
1.18051
1.1803
1.18008
1.17987
1.17967
1.17947
1.17927
1.17907
1.1789
1.28433
1.28433
1.28433
1.28433
1.28433
1.28433
1.28433
1.28433
1.28433
1.28433
1.28433
1.28433
1.28433
1.28433
1.28433
1.28433
1.28432
1.28432
1.28432
1.28432
1.28431
1.28431
1.2843
1.28429
1.28427
1.28425
1.28423
1.2842
1.28417
1.28413
1.28408
1.28401
1.28394
1.28385
1.28374
1.28362
1.28348
1.28331
1.28311
1.28289
1.28264
1.28235
1.28203
1.28167
1.28128
1.28084
1.28037
1.27986
1.27931
1.27872
1.27809
1.27743
1.27673
1.27601
1.27525
1.27446
1.27365
1.27282
1.27195
1.27107
1.27016
1.26923
1.26828
1.26731
1.26632
1.26531
1.26428
1.26322
1.26215
1.26106
1.25995
1.25882
1.25768
1.25652
1.25534
1.25416
1.25296
1.25175
1.25053
1.24932
1.24809
1.24686
1.24564
1.24442
1.2432
1.24199
1.24078
1.23959
1.2384
1.23722
1.23606
1.23491
1.23377
1.23265
1.23154
1.23045
1.22937
1.2283
1.22725
1.22622
1.2252
1.2242
1.22322
1.22225
1.2213
1.22036
1.21944
1.21854
1.21766
1.21678
1.21593
1.21509
1.21426
1.21345
1.21266
1.21188
1.21111
1.21036
1.20963
1.20891
1.2082
1.20751
1.20683
1.20616
1.2055
1.20486
1.20423
1.20362
1.20301
1.20242
1.20183
1.20126
1.2007
1.20015
1.19961
1.19908
1.19856
1.19805
1.19755
1.19706
1.19658
1.19611
1.19565
1.1952
1.19475
1.19432
1.19389
1.19347
1.19305
1.19265
1.19225
1.19186
1.19147
1.19109
1.19072
1.19035
1.19
1.18965
1.1893
1.18896
1.18863
1.18831
1.18799
1.18767
1.18737
1.18706
1.18676
1.18647
1.18618
1.1859
1.18561
1.18534
1.18507
1.1848
1.18454
1.18428
1.18402
1.18376
1.18351
1.18326
1.18302
1.18278
1.18254
1.1823
1.18207
1.18183
1.1816
1.18138
1.18115
1.18093
1.18071
1.18049
1.18027
1.18006
1.17985
1.17965
1.17945
1.17925
1.17905
1.17888
1.28433
1.28433
1.28433
1.28433
1.28433
1.28433
1.28433
1.28433
1.28433
1.28433
1.28433
1.28433
1.28433
1.28433
1.28432
1.28432
1.28432
1.28432
1.28431
1.2843
1.2843
1.28428
1.28427
1.28425
1.28422
1.28419
1.28415
1.28411
1.28405
1.28398
1.2839
1.2838
1.28368
1.28355
1.28339
1.2832
1.28299
1.28275
1.28248
1.28217
1.28183
1.28145
1.28103
1.28057
1.28008
1.27955
1.27898
1.27838
1.27774
1.27707
1.27637
1.27565
1.27489
1.27411
1.27331
1.27249
1.27165
1.27079
1.26991
1.26902
1.26811
1.26718
1.26625
1.26529
1.26432
1.26334
1.26234
1.26133
1.2603
1.25925
1.25819
1.25712
1.25602
1.25492
1.2538
1.25267
1.25153
1.25038
1.24922
1.24805
1.24688
1.24571
1.24454
1.24337
1.2422
1.24103
1.23987
1.23872
1.23757
1.23644
1.23531
1.2342
1.23309
1.232
1.23092
1.22986
1.22881
1.22777
1.22675
1.22574
1.22474
1.22376
1.2228
1.22185
1.22092
1.22
1.2191
1.21821
1.21734
1.21648
1.21564
1.21481
1.214
1.2132
1.21242
1.21165
1.21089
1.21015
1.20943
1.20871
1.20802
1.20733
1.20666
1.206
1.20535
1.20472
1.20409
1.20348
1.20288
1.20229
1.20171
1.20115
1.20059
1.20004
1.19951
1.19898
1.19847
1.19796
1.19747
1.19698
1.1965
1.19603
1.19557
1.19512
1.19468
1.19425
1.19382
1.1934
1.19299
1.19259
1.19219
1.1918
1.19142
1.19104
1.19067
1.1903
1.18995
1.1896
1.18926
1.18892
1.18859
1.18827
1.18795
1.18763
1.18733
1.18702
1.18673
1.18643
1.18615
1.18586
1.18558
1.18531
1.18503
1.18477
1.18451
1.18425
1.18399
1.18373
1.18348
1.18323
1.18299
1.18275
1.18251
1.18228
1.18204
1.18181
1.18158
1.18135
1.18113
1.18091
1.18069
1.18047
1.18025
1.18004
1.17983
1.17963
1.17942
1.17923
1.17903
1.17886
1.28433
1.28433
1.28433
1.28433
1.28433
1.28433
1.28433
1.28433
1.28433
1.28433
1.28433
1.28433
1.28432
1.28432
1.28432
1.28432
1.28431
1.2843
1.28429
1.28428
1.28426
1.28424
1.28421
1.28418
1.28413
1.28408
1.28402
1.28394
1.28384
1.28373
1.2836
1.28345
1.28327
1.28306
1.28283
1.28256
1.28226
1.28193
1.28155
1.28114
1.2807
1.28021
1.27969
1.27914
1.27854
1.27792
1.27727
1.27658
1.27587
1.27514
1.27438
1.2736
1.2728
1.27198
1.27115
1.27031
1.26945
1.26858
1.2677
1.26681
1.26591
1.265
1.26409
1.26316
1.26222
1.26127
1.26031
1.25933
1.25835
1.25735
1.25634
1.25532
1.25428
1.25323
1.25217
1.2511
1.25002
1.24892
1.24782
1.24672
1.2456
1.24449
1.24337
1.24225
1.24113
1.24001
1.2389
1.23779
1.23669
1.23559
1.23451
1.23343
1.23236
1.23131
1.23026
1.22923
1.2282
1.22719
1.2262
1.22521
1.22425
1.22329
1.22235
1.22142
1.22051
1.21961
1.21873
1.21786
1.217
1.21616
1.21533
1.21452
1.21372
1.21293
1.21216
1.2114
1.21066
1.20993
1.20921
1.20851
1.20782
1.20714
1.20648
1.20582
1.20518
1.20456
1.20394
1.20333
1.20274
1.20216
1.20158
1.20102
1.20047
1.19993
1.1994
1.19888
1.19836
1.19786
1.19737
1.19689
1.19641
1.19595
1.19549
1.19504
1.1946
1.19417
1.19375
1.19333
1.19292
1.19252
1.19213
1.19174
1.19136
1.19098
1.19061
1.19025
1.1899
1.18955
1.18921
1.18887
1.18854
1.18822
1.1879
1.18759
1.18729
1.18699
1.18669
1.1864
1.18611
1.18583
1.18555
1.18527
1.185
1.18474
1.18447
1.18421
1.18396
1.1837
1.18345
1.18321
1.18296
1.18272
1.18249
1.18225
1.18202
1.18178
1.18155
1.18133
1.1811
1.18088
1.18066
1.18044
1.18023
1.18002
1.17981
1.1796
1.1794
1.1792
1.17901
1.17884
1.28433
1.28433
1.28433
1.28433
1.28433
1.28433
1.28433
1.28433
1.28433
1.28433
1.28432
1.28432
1.28432
1.28432
1.28431
1.2843
1.28429
1.28428
1.28426
1.28423
1.2842
1.28416
1.28411
1.28405
1.28397
1.28388
1.28377
1.28364
1.28349
1.28332
1.28311
1.28288
1.28261
1.28232
1.28198
1.28161
1.2812
1.28076
1.28027
1.27975
1.2792
1.27861
1.27798
1.27733
1.27665
1.27595
1.27522
1.27447
1.2737
1.27291
1.27211
1.2713
1.27047
1.26964
1.2688
1.26794
1.26708
1.26622
1.26535
1.26447
1.26359
1.2627
1.26181
1.26092
1.26001
1.2591
1.25818
1.25725
1.25632
1.25537
1.25441
1.25344
1.25246
1.25147
1.25047
1.24946
1.24843
1.2474
1.24636
1.24531
1.24425
1.24319
1.24213
1.24106
1.24
1.23893
1.23787
1.23681
1.23575
1.2347
1.23365
1.23261
1.23158
1.23056
1.22955
1.22855
1.22756
1.22658
1.22561
1.22466
1.22371
1.22278
1.22186
1.22096
1.22007
1.21919
1.21833
1.21747
1.21664
1.21581
1.215
1.2142
1.21342
1.21264
1.21189
1.21114
1.21041
1.20969
1.20898
1.20829
1.20761
1.20694
1.20628
1.20564
1.20501
1.20439
1.20378
1.20318
1.20259
1.20201
1.20144
1.20089
1.20034
1.1998
1.19928
1.19876
1.19825
1.19776
1.19727
1.19679
1.19632
1.19586
1.1954
1.19496
1.19452
1.19409
1.19367
1.19326
1.19285
1.19245
1.19206
1.19168
1.1913
1.19092
1.19056
1.1902
1.18984
1.1895
1.18916
1.18882
1.1885
1.18818
1.18786
1.18755
1.18724
1.18694
1.18665
1.18636
1.18607
1.18579
1.18551
1.18524
1.18497
1.1847
1.18444
1.18418
1.18393
1.18367
1.18342
1.18318
1.18293
1.18269
1.18246
1.18222
1.18199
1.18176
1.18153
1.1813
1.18108
1.18086
1.18064
1.18042
1.18021
1.17999
1.17979
1.17958
1.17938
1.17918
1.17899
1.17882
1.28433
1.28433
1.28433
1.28433
1.28433
1.28433
1.28433
1.28433
1.28433
1.28432
1.28432
1.28432
1.28431
1.2843
1.28429
1.28427
1.28425
1.28422
1.28418
1.28414
1.28408
1.284
1.28391
1.28381
1.28368
1.28353
1.28335
1.28315
1.28291
1.28264
1.28234
1.282
1.28162
1.2812
1.28075
1.28026
1.27973
1.27916
1.27856
1.27793
1.27727
1.27659
1.27588
1.27514
1.27439
1.27362
1.27284
1.27205
1.27124
1.27042
1.2696
1.26877
1.26793
1.2671
1.26625
1.26541
1.26456
1.26371
1.26286
1.26201
1.26116
1.2603
1.25944
1.25858
1.25772
1.25685
1.25598
1.2551
1.25421
1.25332
1.25241
1.2515
1.25058
1.24965
1.2487
1.24775
1.24679
1.24581
1.24483
1.24384
1.24285
1.24184
1.24083
1.23982
1.23881
1.2378
1.23678
1.23577
1.23476
1.23375
1.23275
1.23175
1.23076
1.22978
1.2288
1.22784
1.22688
1.22593
1.225
1.22407
1.22315
1.22225
1.22135
1.22047
1.2196
1.21875
1.2179
1.21707
1.21625
1.21544
1.21465
1.21386
1.21309
1.21234
1.21159
1.21086
1.21014
1.20943
1.20873
1.20805
1.20738
1.20672
1.20608
1.20544
1.20482
1.2042
1.2036
1.20301
1.20243
1.20186
1.20129
1.20074
1.2002
1.19967
1.19915
1.19864
1.19814
1.19764
1.19716
1.19669
1.19622
1.19576
1.19531
1.19487
1.19444
1.19401
1.19359
1.19318
1.19278
1.19238
1.19199
1.19161
1.19123
1.19086
1.19049
1.19014
1.18979
1.18944
1.1891
1.18877
1.18845
1.18813
1.18781
1.1875
1.1872
1.1869
1.18661
1.18632
1.18603
1.18575
1.18547
1.1852
1.18493
1.18467
1.18441
1.18415
1.18389
1.18364
1.18339
1.18315
1.1829
1.18266
1.18243
1.18219
1.18196
1.18173
1.1815
1.18128
1.18105
1.18083
1.18061
1.1804
1.18018
1.17997
1.17976
1.17956
1.17936
1.17916
1.17897
1.1788
1.28433
1.28433
1.28433
1.28433
1.28433
1.28433
1.28433
1.28432
1.28432
1.28432
1.28431
1.2843
1.28429
1.28427
1.28424
1.28421
1.28416
1.2841
1.28403
1.28395
1.28384
1.28371
1.28355
1.28337
1.28316
1.28292
1.28264
1.28232
1.28197
1.28158
1.28114
1.28067
1.28016
1.27961
1.27903
1.27841
1.27776
1.27708
1.27638
1.27566
1.27491
1.27415
1.27337
1.27258
1.27178
1.27097
1.27016
1.26934
1.26852
1.26769
1.26686
1.26603
1.26521
1.26438
1.26355
1.26273
1.2619
1.26108
1.26026
1.25944
1.25862
1.25781
1.25699
1.25617
1.25535
1.25453
1.25371
1.25288
1.25204
1.2512
1.25036
1.2495
1.24864
1.24776
1.24688
1.24599
1.24509
1.24417
1.24325
1.24232
1.24138
1.24044
1.23949
1.23853
1.23757
1.23661
1.23565
1.23469
1.23372
1.23276
1.2318
1.23085
1.2299
1.22896
1.22802
1.22709
1.22617
1.22525
1.22434
1.22345
1.22256
1.22168
1.22081
1.21996
1.21911
1.21828
1.21745
1.21664
1.21584
1.21505
1.21427
1.21351
1.21275
1.21201
1.21128
1.21056
1.20985
1.20916
1.20847
1.2078
1.20714
1.20649
1.20586
1.20523
1.20461
1.20401
1.20342
1.20283
1.20226
1.20169
1.20114
1.20059
1.20006
1.19953
1.19902
1.19851
1.19801
1.19752
1.19705
1.19657
1.19611
1.19566
1.19521
1.19477
1.19434
1.19392
1.19351
1.1931
1.1927
1.1923
1.19192
1.19154
1.19116
1.19079
1.19043
1.19007
1.18973
1.18938
1.18905
1.18872
1.18839
1.18807
1.18776
1.18745
1.18715
1.18685
1.18656
1.18627
1.18599
1.18571
1.18543
1.18516
1.18489
1.18463
1.18437
1.18411
1.18386
1.18361
1.18336
1.18311
1.18287
1.18263
1.1824
1.18216
1.18193
1.1817
1.18147
1.18125
1.18103
1.18081
1.18059
1.18037
1.18016
1.17995
1.17974
1.17954
1.17934
1.17914
1.17895
1.17877
1.28433
1.28433
1.28433
1.28433
1.28433
1.28432
1.28432
1.28432
1.28431
1.2843
1.28428
1.28426
1.28423
1.28419
1.28413
1.28407
1.28398
1.28387
1.28374
1.28358
1.28339
1.28316
1.28291
1.28261
1.28228
1.2819
1.28148
1.28102
1.28052
1.27998
1.2794
1.27878
1.27813
1.27745
1.27674
1.27601
1.27526
1.27449
1.27371
1.27291
1.27211
1.2713
1.27048
1.26966
1.26884
1.26801
1.26719
1.26637
1.26555
1.26474
1.26392
1.26311
1.26231
1.26151
1.26071
1.25992
1.25913
1.25834
1.25756
1.25679
1.25601
1.25524
1.25447
1.2537
1.25293
1.25216
1.25138
1.25061
1.24983
1.24904
1.24826
1.24746
1.24665
1.24584
1.24502
1.24418
1.24334
1.24249
1.24163
1.24076
1.23988
1.23899
1.2381
1.2372
1.2363
1.23539
1.23447
1.23356
1.23265
1.23173
1.23082
1.22991
1.229
1.2281
1.2272
1.22631
1.22542
1.22454
1.22366
1.2228
1.22194
1.22109
1.22024
1.21941
1.21859
1.21778
1.21698
1.21619
1.21541
1.21464
1.21388
1.21313
1.21239
1.21167
1.21095
1.21025
1.20955
1.20887
1.2082
1.20754
1.20689
1.20625
1.20562
1.20501
1.2044
1.20381
1.20322
1.20264
1.20208
1.20152
1.20097
1.20043
1.19991
1.19939
1.19888
1.19838
1.19788
1.1974
1.19692
1.19646
1.196
1.19555
1.19511
1.19467
1.19425
1.19383
1.19342
1.19301
1.19261
1.19222
1.19184
1.19146
1.19109
1.19072
1.19036
1.19001
1.18966
1.18932
1.18899
1.18866
1.18834
1.18802
1.18771
1.1874
1.1871
1.18681
1.18651
1.18623
1.18594
1.18567
1.18539
1.18512
1.18485
1.18459
1.18433
1.18408
1.18382
1.18357
1.18332
1.18308
1.18284
1.1826
1.18237
1.18213
1.1819
1.18167
1.18145
1.18122
1.181
1.18078
1.18056
1.18035
1.18013
1.17992
1.17972
1.17951
1.17931
1.17912
1.17893
1.17875
1.28433
1.28433
1.28433
1.28433
1.28432
1.28432
1.28431
1.2843
1.28428
1.28426
1.28422
1.28417
1.2841
1.28401
1.2839
1.28376
1.2836
1.28339
1.28315
1.28288
1.28255
1.28219
1.28178
1.28132
1.28082
1.28027
1.27968
1.27905
1.27839
1.27769
1.27697
1.27622
1.27545
1.27466
1.27386
1.27304
1.27222
1.27139
1.27056
1.26973
1.2689
1.26807
1.26724
1.26642
1.2656
1.26478
1.26398
1.26318
1.26238
1.26159
1.26081
1.26004
1.25927
1.25851
1.25775
1.257
1.25626
1.25552
1.25478
1.25406
1.25333
1.25261
1.25189
1.25117
1.25045
1.24973
1.24902
1.2483
1.24757
1.24685
1.24611
1.24537
1.24463
1.24387
1.24311
1.24234
1.24156
1.24077
1.23996
1.23916
1.23834
1.23751
1.23667
1.23583
1.23498
1.23412
1.23326
1.2324
1.23153
1.23067
1.2298
1.22893
1.22807
1.22721
1.22635
1.22549
1.22464
1.22379
1.22295
1.22212
1.22129
1.22047
1.21965
1.21885
1.21805
1.21726
1.21648
1.21572
1.21496
1.21421
1.21347
1.21274
1.21202
1.2113
1.2106
1.20991
1.20924
1.20857
1.20791
1.20726
1.20662
1.206
1.20538
1.20477
1.20418
1.20359
1.20301
1.20245
1.20189
1.20134
1.2008
1.20027
1.19974
1.19923
1.19873
1.19823
1.19774
1.19727
1.1968
1.19634
1.19588
1.19544
1.195
1.19457
1.19415
1.19373
1.19332
1.19292
1.19253
1.19214
1.19176
1.19138
1.19101
1.19065
1.19029
1.18994
1.1896
1.18926
1.18892
1.1886
1.18828
1.18796
1.18765
1.18735
1.18705
1.18676
1.18647
1.18618
1.1859
1.18562
1.18535
1.18508
1.18481
1.18455
1.18429
1.18404
1.18379
1.18354
1.18329
1.18305
1.18281
1.18257
1.18234
1.1821
1.18187
1.18164
1.18142
1.18119
1.18097
1.18075
1.18053
1.18032
1.18011
1.1799
1.17969
1.17949
1.17929
1.17909
1.1789
1.17873
1.28433
1.28433
1.28433
1.28432
1.28432
1.2843
1.28428
1.28425
1.28421
1.28414
1.28406
1.28394
1.2838
1.28362
1.2834
1.28313
1.28282
1.28246
1.28205
1.28159
1.28107
1.28051
1.2799
1.27924
1.27855
1.27781
1.27705
1.27627
1.27546
1.27463
1.27379
1.27294
1.27209
1.27123
1.27037
1.26952
1.26866
1.26782
1.26697
1.26614
1.26531
1.2645
1.26369
1.26289
1.2621
1.26132
1.26055
1.25979
1.25903
1.25829
1.25756
1.25683
1.25611
1.2554
1.2547
1.254
1.2533
1.25262
1.25194
1.25127
1.25059
1.24993
1.24926
1.2486
1.24794
1.24728
1.24662
1.24595
1.24529
1.24462
1.24394
1.24326
1.24257
1.24188
1.24118
1.24046
1.23974
1.23901
1.23827
1.23752
1.23676
1.23599
1.23521
1.23442
1.23363
1.23282
1.23202
1.2312
1.23039
1.22957
1.22875
1.22793
1.2271
1.22628
1.22546
1.22464
1.22383
1.22302
1.22221
1.22141
1.22061
1.21982
1.21904
1.21826
1.21749
1.21672
1.21597
1.21522
1.21449
1.21376
1.21304
1.21232
1.21162
1.21093
1.21024
1.20957
1.2089
1.20825
1.20761
1.20697
1.20635
1.20573
1.20512
1.20453
1.20394
1.20337
1.2028
1.20224
1.20169
1.20115
1.20061
1.20009
1.19957
1.19907
1.19857
1.19808
1.1976
1.19713
1.19666
1.19621
1.19576
1.19532
1.19488
1.19446
1.19404
1.19363
1.19322
1.19283
1.19243
1.19205
1.19167
1.1913
1.19093
1.19057
1.19022
1.18987
1.18953
1.18919
1.18886
1.18854
1.18822
1.1879
1.1876
1.18729
1.187
1.1867
1.18641
1.18613
1.18585
1.18557
1.1853
1.18503
1.18477
1.18451
1.18425
1.184
1.18375
1.1835
1.18325
1.18301
1.18277
1.18254
1.1823
1.18207
1.18184
1.18161
1.18139
1.18116
1.18094
1.18072
1.18051
1.18029
1.18008
1.17987
1.17967
1.17946
1.17926
1.17907
1.17888
1.17871
1.28433
1.28432
1.28432
1.28431
1.28429
1.28425
1.28419
1.28411
1.284
1.28384
1.28365
1.2834
1.2831
1.28274
1.28232
1.28184
1.2813
1.2807
1.28005
1.27934
1.27859
1.2778
1.27697
1.27612
1.27525
1.27436
1.27346
1.27256
1.27165
1.27075
1.26985
1.26896
1.26807
1.2672
1.26633
1.26548
1.26464
1.26382
1.263
1.2622
1.26141
1.26064
1.25988
1.25913
1.25839
1.25766
1.25694
1.25624
1.25554
1.25486
1.25418
1.25351
1.25286
1.2522
1.25156
1.25092
1.25029
1.24966
1.24904
1.24843
1.24781
1.24721
1.2466
1.246
1.2454
1.24479
1.24419
1.24358
1.24297
1.24236
1.24175
1.24113
1.2405
1.23986
1.23922
1.23857
1.2379
1.23723
1.23655
1.23586
1.23515
1.23444
1.23372
1.23298
1.23224
1.2315
1.23074
1.22998
1.22921
1.22844
1.22767
1.22689
1.22611
1.22533
1.22455