/*--------------------------------*- C++ -*----------------------------------*\
| =========                 |                                                 |
| \\      /  F ield         | OpenFOAM: The Open Source CFD Toolbox           |
|  \\    /   O peration     | Version:  1.7.0                                 |
|   \\  /    A nd           | Web:      www.OpenFOAM.com                      |
|    \\/     M anipulation  |                                                 |
\*---------------------------------------------------------------------------*/
FoamFile
{
    version     2.0;
    format      ascii;
    class       volVectorField;
    location    "0.252";
    object      U;
}
// * * * * * * * * * * * * * * * * * * * * * * * * * * * * * * * * * * * * * //

dimensions      [0 1 -1 0 0 0 0];

internalField   nonuniform List<vector> 
14800
(
(29.528 0.000746349 -5.76615e-15)
(29.5248 0.00110018 -9.95803e-14)
(29.5124 0.00157236 -1.11998e-12)
(29.494 0.0018983 -5.52049e-11)
(29.4732 0.00206165 -2.73246e-09)
(29.4515 0.00209303 -1.29182e-07)
(29.43 0.00161152 -5.27649e-06)
(29.4162 -0.000330195 -0.000137595)
(29.4284 0.0075569 -0.000132281)
(29.3803 0.00371517 -7.81243e-05)
(29.3518 0.00432054 -3.89801e-05)
(29.3149 0.00289677 -1.74116e-05)
(29.2894 0.00199695 -6.43061e-06)
(29.2704 0.00155676 -1.19706e-06)
(29.2537 0.00144464 1.06651e-06)
(29.2357 0.00147966 1.9762e-06)
(29.2182 0.00232702 2.35974e-06)
(29.183 0.00271719 2.58493e-06)
(29.1523 0.00353351 2.70539e-06)
(29.1132 0.0029552 2.84867e-06)
(29.0813 0.00246182 2.88225e-06)
(29.0526 0.00227788 2.81473e-06)
(29.0241 0.00229921 2.65171e-06)
(28.9945 0.00229855 2.40342e-06)
(28.9656 0.00221862 2.09128e-06)
(28.9373 0.00213034 1.74137e-06)
(28.9098 0.00203307 1.37813e-06)
(28.8829 0.00192783 1.02072e-06)
(28.8581 0.00208321 6.79844e-07)
(28.8265 0.00230282 3.73967e-07)
(28.7942 0.0022623 1.15863e-07)
(28.764 0.00230062 -8.879e-08)
(28.7306 0.00264173 -2.33914e-07)
(28.6919 0.00265923 -2.90732e-07)
(28.6546 0.00255608 -2.92417e-07)
(28.6182 0.0024726 -2.42026e-07)
(28.5821 0.00248024 -1.51766e-07)
(28.544 0.00256243 -4.11174e-08)
(28.5044 0.00267037 7.96057e-08)
(28.4631 0.00275092 2.00659e-07)
(28.4203 0.00279765 3.12884e-07)
(28.3764 0.00284686 4.11946e-07)
(28.3315 0.0028932 4.92897e-07)
(28.2853 0.00296715 5.54772e-07)
(28.2373 0.00312018 5.98046e-07)
(28.1854 0.00331829 6.2334e-07)
(28.1303 0.00350693 6.35493e-07)
(28.0712 0.00369059 6.41318e-07)
(28.0099 0.00414053 6.14763e-07)
(27.9348 0.0045621 5.70343e-07)
(27.8566 0.00478666 5.18742e-07)
(27.7738 0.00540144 4.63374e-07)
(27.6733 0.00605247 4.03756e-07)
(27.5648 0.00656507 3.42464e-07)
(27.447 0.00705619 2.78807e-07)
(27.3195 0.00722998 1.98842e-07)
(27.1944 0.0108171 -3.40112e-07)
(27.0232 0.00991328 5.58008e-08)
(26.8457 0.0103626 9.08376e-08)
(26.6519 0.0110007 7.46493e-08)
(26.4446 0.011857 -6.19806e-09)
(26.2161 0.0126261 -8.36816e-06)
(25.977 0.0125079 -0.00147863)
(25.75 0.0156851 -0.303585)
(25.4648 0.0146999 -0.0321066)
(25.1787 0.0154156 -0.00382307)
(24.8823 0.0154046 -0.00105714)
(24.5781 0.0155617 -0.00209176)
(24.2739 0.0161381 0.0172033)
(23.9404 0.0162885 0.000450588)
(23.6134 0.0156142 -0.000504546)
(23.3025 0.015693 -0.0669213)
(22.9996 0.016196 -0.0430845)
(22.6653 0.0156651 -0.00359824)
(22.2903 0.0169829 0.00863516)
(21.9413 0.015355 0.00102274)
(21.623 0.0148787 0.013178)
(21.2878 0.0155882 0.0201521)
(20.9483 0.014771 0.0102605)
(20.6143 0.014738 0.000875112)
(20.2909 0.013425 0.000544735)
(19.9867 0.013283 0.0067789)
(19.6818 0.0132825 0.00209014)
(19.3717 0.0121258 0.000313315)
(19.0867 0.0115482 0.00876033)
(18.8188 0.0130763 0.0712412)
(18.511 0.0118493 0.0047271)
(18.2467 0.0121231 0.0907259)
(17.9095 0.0123107 0.0151417)
(17.6376 0.0115203 0.0904002)
(17.3719 0.0123759 0.0559858)
(17.1034 0.0125191 0.293415)
(16.8317 0.011397 0.26312)
(16.5631 0.0101626 -0.0943885)
(16.3026 0.00994216 0.0261501)
(16.0537 0.00902776 0.00928499)
(15.8148 0.00907848 -0.0131919)
(15.5873 0.00789885 0.0122176)
(15.3714 0.00906328 0.0730123)
(15.1366 0.0093606 0.107278)
(14.9073 0.0106169 0.132285)
(14.6798 0.00752687 0.0243737)
(14.4678 0.00828623 0.053389)
(14.2279 0.00642569 -0.0350091)
(14.0484 0.00716439 -0.237961)
(13.8485 0.00688166 0.0144945)
(13.6493 0.00621192 0.0116882)
(13.4599 0.00593586 0.00896864)
(13.2719 0.00653209 0.0329927)
(13.0908 0.00599807 0.0114596)
(12.9128 0.00560857 -0.0147963)
(12.7414 0.00720539 0.0916507)
(12.5599 0.00534292 0.0596676)
(12.4034 0.00602364 0.0777811)
(12.2324 0.0042106 0.00770375)
(12.0714 0.00477819 0.015488)
(11.9133 0.00457013 0.0140126)
(11.7675 0.00456323 -0.0286538)
(11.6036 0.0061541 0.108674)
(11.4777 0.00470095 0.104833)
(11.3396 0.00446993 -0.0175024)
(11.1944 0.00460546 -0.0475297)
(11.0736 0.00473691 -0.0711663)
(10.9215 0.00337669 0.0146912)
(10.7906 0.00669688 -0.0723024)
(10.6551 0.00423322 0.0360002)
(10.5234 0.00310282 0.0751142)
(10.3996 0.00432468 0.187076)
(10.2716 0.0033405 0.0187402)
(10.1545 0.00328473 0.0235069)
(10.042 0.00333396 0.0391912)
(9.92046 0.00362962 0.0689343)
(9.81764 0.00368268 0.0526865)
(9.70124 0.00444042 0.0826809)
(9.5993 0.0046131 0.107029)
(9.49724 0.00324812 -0.0145216)
(9.39023 0.00333541 -0.0235868)
(9.28589 0.00367796 -0.0641704)
(9.18447 0.0029315 0.0354879)
(9.08808 0.00309221 -0.0398)
(8.99237 0.00360562 0.0220956)
(8.8975 0.00235729 -0.0213703)
(8.81482 0.00304414 -0.027819)
(8.71903 0.00279278 0.0326675)
(8.626 0.00234976 0.0259694)
(8.55027 0.00281938 0.0482506)
(8.46249 0.00257058 0.0370593)
(8.37733 0.00231813 0.0268917)
(8.2954 0.00212294 0.0262802)
(8.21625 0.00292281 -0.0297732)
(8.13946 0.00259269 0.0470327)
(8.05916 0.00251748 0.0471598)
(7.98283 0.00241825 0.0633705)
(7.91376 0.00239633 0.0510414)
(7.8431 0.00212139 0.0318946)
(7.76875 0.00197337 -0.025458)
(7.69545 0.00284885 0.0706891)
(7.6294 0.00246151 0.0524998)
(7.56297 0.00176987 0.0272396)
(7.50064 0.00264741 0.0275026)
(7.43277 0.00239455 -0.0513915)
(7.36867 0.00229097 0.0480975)
(7.30391 0.00218171 -0.0241061)
(7.24513 0.00179796 0.0105628)
(7.18378 0.00188722 -0.042324)
(7.12322 0.00177367 -0.108489)
(7.06518 0.00236488 0.0600194)
(7.01103 0.00178784 0.0376785)
(6.95613 0.00262684 0.0533162)
(6.89816 0.00186218 0.0431088)
(6.84265 0.00241928 0.0687254)
(6.79129 0.00217115 0.0576042)
(6.74009 0.00191833 -0.00419068)
(6.69082 0.00186822 -0.046687)
(6.64112 0.0024103 0.0680472)
(6.59159 0.00126914 0.0214213)
(6.54442 0.00166153 0.0424786)
(6.49516 0.00146009 0.0300219)
(6.44486 0.00132811 0.0148164)
(6.40291 0.00183268 0.0511231)
(6.35892 0.00163815 0.00546453)
(6.31484 0.00279488 0.0883633)
(6.27287 0.00155211 0.0361324)
(6.22917 0.00143679 0.0269863)
(6.18867 0.00134718 -0.0298909)
(6.14773 0.00132536 0.0311863)
(6.10769 0.00163922 -0.003682)
(6.06762 0.00155134 0.0431745)
(6.03262 0.00177056 -0.0506069)
(5.98907 0.00157495 0.0485267)
(5.9558 0.00179409 0.053001)
(5.91796 0.00169981 0.0531187)
(5.88104 0.000958815 -0.0227301)
(5.84724 0.00132176 0.0357732)
(5.81337 0.00147141 0.0432185)
(5.78076 0.00115131 0.0286796)
(5.74871 0.00105914 -0.00534576)
(5.71646 0.00123412 0.0408042)
(5.69133 0.00135692 0.0402681)
(5.654 0.001135 0.0357624)
(29.5062 0.00172145 -1.82564e-14)
(29.5033 0.00284757 -3.32104e-13)
(29.491 0.00400346 -2.59201e-12)
(29.4725 0.00481216 -1.23293e-10)
(29.4517 0.00524947 -5.7072e-09)
(29.4298 0.00537937 -2.47799e-07)
(29.4073 0.0045707 -9.22122e-06)
(29.3857 0.00174247 -0.000222603)
(29.3672 0.000527182 -0.00023023)
(29.3505 0.00895076 -0.0001503)
(29.3181 0.00717398 -8.1578e-05)
(29.2904 0.00675458 -3.81628e-05)
(29.2659 0.00497358 -1.37501e-05)
(29.2477 0.00386842 -1.55896e-06)
(29.2327 0.00409311 3.77508e-06)
(29.2102 0.00499114 5.91844e-06)
(29.1835 0.00592908 6.86668e-06)
(29.1563 0.00726903 7.44677e-06)
(29.1204 0.00715583 7.88349e-06)
(29.088 0.00695656 8.1839e-06)
(29.0585 0.00606594 8.2534e-06)
(29.0306 0.00568835 8.04225e-06)
(29.0039 0.00580896 7.55671e-06)
(28.973 0.00589379 6.82945e-06)
(28.9441 0.00565918 5.92484e-06)
(28.916 0.00543458 4.91898e-06)
(28.888 0.00518852 3.88147e-06)
(28.8614 0.00521609 2.86785e-06)
(28.8322 0.00542306 1.90228e-06)
(28.8024 0.00573879 1.03961e-06)
(28.7713 0.00575806 3.1495e-07)
(28.7402 0.00605265 -2.5404e-07)
(28.7042 0.00643886 -6.36446e-07)
(28.6689 0.00663751 -8.15346e-07)
(28.6319 0.00652358 -8.18782e-07)
(28.5951 0.006311 -6.74243e-07)
(28.5596 0.00630088 -4.15861e-07)
(28.5214 0.00655017 -1.02469e-07)
(28.4814 0.00684034 2.36551e-07)
(28.4395 0.00705484 5.77558e-07)
(28.3963 0.00714105 8.9188e-07)
(28.3516 0.00729793 1.17041e-06)
(28.3059 0.00742674 1.39719e-06)
(28.2586 0.00761188 1.56999e-06)
(28.2103 0.00800584 1.69047e-06)
(28.1569 0.00853933 1.76052e-06)
(28.1004 0.00902815 1.79334e-06)
(28.0397 0.00960761 1.81179e-06)
(27.973 0.0106936 1.73804e-06)
(27.8985 0.0116318 1.60757e-06)
(27.8196 0.0124212 1.4609e-06)
(27.7314 0.0144869 1.30497e-06)
(27.6303 0.015776 1.13691e-06)
(27.5202 0.016874 9.64298e-07)
(27.3999 0.0181672 7.86012e-07)
(27.2689 0.0190542 5.69746e-07)
(27.1274 0.0204173 1.72802e-07)
(26.9653 0.0245219 2.59837e-07)
(26.7886 0.0265308 2.67222e-07)
(26.5948 0.0280991 2.1167e-07)
(26.3899 0.0304589 1.75455e-08)
(26.1588 0.0325726 -1.52144e-05)
(25.9171 0.0325824 -0.00199446)
(25.6718 0.0341907 -0.1776)
(25.4013 0.0378114 -0.0434069)
(25.1194 0.0388511 -0.00710836)
(24.8254 0.0393387 -0.00260368)
(24.523 0.0399595 -0.00569552)
(24.2164 0.0406933 0.00444713)
(23.8905 0.0414705 -0.000528217)
(23.5655 0.0401518 -0.00109849)
(23.2514 0.0380187 -0.0406928)
(22.9348 0.0396631 -0.027993)
(22.5926 0.0430239 -0.00668914)
(22.2434 0.0421076 0.0031937)
(21.9033 0.0394883 0.00206863)
(21.5767 0.0383826 0.00835935)
(21.2476 0.0385756 0.0116931)
(20.9121 0.0373786 0.00834902)
(20.5828 0.0377011 0.00177582)
(20.26 0.0347901 0.0014445)
(19.9536 0.0337255 0.00601767)
(19.6465 0.0333792 0.00211621)
(19.3446 0.0317719 0.000763658)
(19.0488 0.0300581 0.00987467)
(18.7643 0.0298913 0.0425383)
(18.4696 0.030055 0.00938303)
(18.1878 0.0295176 0.054356)
(17.8844 0.0303527 0.0192478)
(17.6109 0.0264504 0.0605088)
(17.3428 0.0257002 0.0425436)
(17.0732 0.0256929 0.178128)
(16.8044 0.0251079 0.223137)
(16.5403 0.0250204 -0.018912)
(16.2814 0.0236112 0.0147987)
(16.0333 0.0226003 0.00730613)
(15.797 0.0211192 -0.00444864)
(15.5659 0.0202154 0.0127079)
(15.3443 0.0195545 0.0465013)
(15.1141 0.0199951 0.0787553)
(14.8875 0.0182387 0.0876552)
(14.6639 0.0189731 0.0191345)
(14.4491 0.0188676 0.0300821)
(14.2259 0.0177648 -0.0435367)
(14.0336 0.0154938 -0.162676)
(13.835 0.0162119 0.00219405)
(13.6389 0.0153468 0.00715072)
(13.4502 0.0151474 0.00722106)
(13.2632 0.0142755 0.0189172)
(13.0814 0.0138491 0.00836953)
(12.9039 0.0134278 -0.0100646)
(12.7299 0.012787 0.0498175)
(12.555 0.0124053 0.0535135)
(12.3923 0.0121962 0.0550529)
(12.2273 0.0122714 0.00881192)
(12.0654 0.0115637 0.00900923)
(11.9079 0.0108384 0.00917295)
(11.7571 0.0109222 -0.0191509)
(11.6012 0.00932631 0.0636739)
(11.4675 0.00909244 0.0801036)
(11.3264 0.00963076 -0.00309244)
(11.1855 0.0086601 -0.0322852)
(11.0572 0.00877307 -0.0449767)
(10.914 0.00920354 0.00649016)
(10.7815 0.0074934 -0.0695394)
(10.6473 0.00836347 0.0200513)
(10.5164 0.00834486 0.0628621)
(10.392 0.00761207 0.121692)
(10.2675 0.00749981 0.0161779)
(10.1502 0.00696221 0.0172955)
(10.0359 0.0069416 0.025258)
(9.91766 0.00654099 0.0423666)
(9.81044 0.00619502 0.0370617)
(9.69811 0.00577664 0.0562431)
(9.59466 0.0051765 0.0651641)
(9.49128 0.00580453 -0.0114019)
(9.38534 0.00574202 -0.0157004)
(9.28202 0.00537129 -0.0373078)
(9.18112 0.00532542 0.0211173)
(9.08393 0.0050946 -0.0241686)
(8.98933 0.0046231 0.0139819)
(8.89472 0.00475305 -0.0139358)
(8.80867 0.00445189 -0.0181605)
(8.71492 0.00476881 0.0209931)
(8.62458 0.00424956 0.0164856)
(8.54418 0.00396868 0.0327371)
(8.45873 0.00422233 0.0239263)
(8.37446 0.00406945 0.0186831)
(8.29288 0.0038838 0.0181386)
(8.21334 0.00347445 -0.01898)
(8.13579 0.00356545 0.0309514)
(8.05712 0.00346608 0.0301705)
(7.98115 0.00316363 0.0431331)
(7.91071 0.00306288 0.0318267)
(7.83878 0.00314514 0.0221052)
(7.76631 0.00318372 -0.0151094)
(7.69512 0.00275028 0.0457322)
(7.62733 0.00270166 0.0364091)
(7.5608 0.00284384 0.0171183)
(7.49697 0.00255658 0.0187207)
(7.43074 0.00254894 -0.0328113)
(7.36656 0.00255895 0.0296459)
(7.30286 0.00236965 -0.0155482)
(7.24339 0.00240214 0.00402547)
(7.18268 0.00233349 -0.0236468)
(7.12227 0.00226217 -0.0330957)
(7.06415 0.00198997 0.037645)
(7.00933 0.00199409 0.0257422)
(6.95413 0.0018799 0.0357355)
(6.89747 0.00200182 0.0298506)
(6.84222 0.00177825 0.0461765)
(6.7903 0.00163606 0.0397256)
(6.73946 0.00171756 -0.00386683)
(6.68974 0.00165619 -0.0313746)
(6.63963 0.00155985 0.0399251)
(6.59037 0.00176134 0.0163134)
(6.54245 0.0016025 0.0275316)
(6.49445 0.00162229 0.0203933)
(6.44578 0.00165379 0.0110918)
(6.40225 0.00135798 0.0316427)
(6.35797 0.00140336 0.00628975)
(6.31376 0.00110724 0.0553799)
(6.27176 0.00133858 0.0254685)
(6.22807 0.001323 0.0175965)
(6.18741 0.00129235 -0.0185998)
(6.14659 0.00130772 0.019552)
(6.10666 0.0011389 -0.00578548)
(6.06686 0.00112359 0.0280318)
(6.03027 0.0010784 -0.0327201)
(5.98939 0.00109233 0.030398)
(5.95458 0.00097609 0.0343199)
(5.91705 0.000961043 0.0343485)
(5.88098 0.00107585 -0.0138206)
(5.84666 0.000935661 0.0227249)
(5.81281 0.000853717 0.0279934)
(5.78 0.0009523 0.019236)
(5.74823 0.00104354 -0.00186607)
(5.71557 0.0008249 0.0267187)
(5.69131 0.000769302 0.0261026)
(5.65377 0.000482803 0.0243417)
(29.4592 0.00254922 -4.22239e-14)
(29.456 0.00458355 -9.7271e-13)
(29.4437 0.00632338 -1.72987e-12)
(29.4252 0.00752097 -6.1992e-11)
(29.4043 0.00820924 -3.1772e-09)
(29.3822 0.00849786 -1.20345e-07)
(29.3593 0.00810251 -3.64611e-06)
(29.3355 0.00687011 -7.20996e-05)
(29.3115 0.00724486 -9.13849e-05)
(29.2877 0.00845607 -7.33866e-05)
(29.2624 0.00981302 -4.51502e-05)
(29.2378 0.00924045 -1.99268e-05)
(29.2146 0.00756835 -2.88656e-06)
(29.1937 0.00611101 6.12938e-06)
(29.1749 0.00652014 9.9341e-06)
(29.1508 0.00772162 1.13712e-05)
(29.1245 0.00912146 1.21403e-05)
(29.0967 0.010198 1.28361e-05)
(29.0658 0.0107843 1.35114e-05)
(29.0366 0.0101179 1.39687e-05)
(29.0096 0.00948637 1.40136e-05)
(28.9811 0.0089748 1.35643e-05)
(28.9529 0.00911397 1.26285e-05)
(28.9241 0.00901034 1.13039e-05)
(28.8963 0.00864546 9.70896e-06)
(28.8694 0.00854881 7.9823e-06)
(28.8396 0.0083319 6.2401e-06)
(28.8101 0.00828462 4.56185e-06)
(28.7805 0.008605 3.00337e-06)
(28.7508 0.00901815 1.61751e-06)
(28.7186 0.00900739 4.68669e-07)
(28.6865 0.00940392 -4.22687e-07)
(28.6522 0.00993473 -1.01344e-06)
(28.6163 0.0101065 -1.28415e-06)
(28.58 0.0100446 -1.27422e-06)
(28.5437 0.00977867 -1.0336e-06)
(28.5084 0.0101962 -5.9897e-07)
(28.4685 0.0107244 -1.01527e-07)
(28.4269 0.0107468 4.3694e-07)
(28.3862 0.0111099 9.82183e-07)
(28.3433 0.0115948 1.47105e-06)
(28.2962 0.0116464 1.91493e-06)
(28.2489 0.0118411 2.27042e-06)
(28.1991 0.0121829 2.53865e-06)
(28.1472 0.0127749 2.724e-06)
(28.0917 0.0135659 2.83035e-06)
(28.0332 0.0143798 2.87493e-06)
(27.9694 0.0154275 2.90969e-06)
(27.899 0.0170318 2.82131e-06)
(27.8191 0.0186003 2.57088e-06)
(27.7335 0.019994 2.33465e-06)
(27.6394 0.022072 2.0817e-06)
(27.5357 0.0246491 1.81471e-06)
(27.4211 0.0267936 1.54112e-06)
(27.2955 0.0289821 1.26384e-06)
(27.158 0.0310648 9.59007e-07)
(27.0071 0.0345255 6.08427e-07)
(26.8427 0.0381969 5.45101e-07)
(26.6627 0.0410061 4.66971e-07)
(26.4701 0.0437861 3.44619e-07)
(26.2603 0.04717 1.10053e-07)
(26.0323 0.0504738 -7.79713e-06)
(25.7872 0.0520452 -0.000847995)
(25.5346 0.0537657 -0.0561538)
(25.2703 0.0573114 -0.0187935)
(24.9913 0.0587282 -0.00383693)
(24.7016 0.060767 -0.00279149)
(24.4012 0.0612971 -0.00699714)
(24.0981 0.0631154 -0.00268466)
(23.7805 0.0641619 -0.00202205)
(23.4617 0.0626281 -0.00121498)
(23.1435 0.0608869 -0.0219763)
(22.8229 0.0628721 -0.0161436)
(22.4917 0.0651127 -0.00579361)
(22.1541 0.064097 3.62015e-05)
(21.8224 0.061385 0.00204389)
(21.4955 0.0596922 0.00495121)
(21.1716 0.0595732 0.00667317)
(20.8411 0.0586848 0.00500301)
(20.5174 0.0581464 0.00178622)
(20.1979 0.0542075 0.00190774)
(19.8934 0.0526202 0.00419338)
(19.5888 0.05179 0.00198217)
(19.2877 0.0500704 0.00106834)
(18.9929 0.0476515 0.00907746)
(18.7023 0.0477119 0.0246761)
(18.4131 0.0468931 0.0102807)
(18.1292 0.0462027 0.0318581)
(17.8409 0.0455447 0.0206169)
(17.5684 0.0417263 0.0431478)
(17.3017 0.0411483 0.0302755)
(17.0333 0.0405846 0.0697472)
(16.766 0.0393898 0.105319)
(16.5059 0.0387564 0.00211979)
(16.2499 0.0369409 0.00795346)
(16.0043 0.0351182 0.00557166)
(15.7689 0.0334427 -0.00120165)
(15.5378 0.0320001 0.0125282)
(15.3129 0.0312477 0.02824)
(15.085 0.0317491 0.0489494)
(14.8628 0.0299252 0.0554659)
(14.642 0.02956 0.0181769)
(14.4265 0.0293296 0.0182391)
(14.2129 0.0264032 -0.0486277)
(14.0154 0.0254322 -0.0870557)
(13.8175 0.0253914 -0.00244071)
(13.6236 0.0244251 0.00492067)
(13.4349 0.0234828 0.00545049)
(13.2474 0.0225192 0.0117093)
(13.0666 0.02182 0.0065449)
(12.8893 0.0212183 -0.0057797)
(12.7158 0.0206459 0.0265465)
(12.5441 0.019466 0.0461995)
(12.3796 0.0192959 0.0383021)
(12.2166 0.0187476 0.00911041)
(12.0558 0.0179885 0.00608676)
(11.8984 0.0172698 0.00610439)
(11.7461 0.0169752 -0.0129813)
(11.5941 0.0156297 0.0374311)
(11.4565 0.0147817 0.0588379)
(11.3143 0.0151122 0.00420304)
(11.1754 0.0141133 -0.0213966)
(11.0439 0.0141996 -0.0286659)
(10.9035 0.0144496 0.00210303)
(10.7711 0.0131744 -0.0412491)
(10.6389 0.0132405 0.00998791)
(10.5089 0.0127747 0.047143)
(10.3845 0.0121043 0.0551648)
(10.2616 0.0117199 0.012031)
(10.1447 0.0110607 0.0111762)
(10.0292 0.0109923 0.0175213)
(9.91275 0.0105112 0.0285611)
(9.80364 0.0100252 0.0256083)
(9.69337 0.00968445 0.0377066)
(9.58854 0.00917725 0.0406183)
(9.48513 0.00930686 -0.00715645)
(9.38 0.00921309 -0.00821734)
(9.27729 0.00880376 -0.0216988)
(9.17695 0.00848113 0.0123022)
(9.07949 0.00799547 -0.013702)
(8.98515 0.00782126 0.00985107)
(8.89113 0.00752976 -0.00907494)
(8.80336 0.00730773 -0.0113166)
(8.71093 0.00746261 0.0119681)
(8.62186 0.00683172 0.0104068)
(8.53932 0.00651591 0.0212849)
(8.45498 0.00670246 0.0160328)
(8.3713 0.00641249 0.0125773)
(8.28982 0.00617946 0.0128761)
(8.21035 0.00585119 -0.0104004)
(8.13237 0.00579787 0.0196746)
(8.05464 0.00566656 0.0194084)
(7.97893 0.00529406 0.0281565)
(7.90797 0.00507179 0.0205304)
(7.83537 0.00515672 0.0148114)
(7.76381 0.00501567 -0.00811771)
(7.69359 0.00477028 0.0295693)
(7.62513 0.00457123 0.0241036)
(7.55854 0.00449367 0.0118061)
(7.49398 0.00434986 0.0123839)
(7.42848 0.00428749 -0.0199426)
(7.36449 0.0041993 0.0174372)
(7.3013 0.0039524 -0.00911228)
(7.24153 0.00387266 0.00196758)
(7.18116 0.00383825 -0.0140824)
(7.12092 0.00367601 -0.017003)
(7.06293 0.00346851 0.0227939)
(7.00766 0.00335876 0.0169859)
(6.95235 0.00335873 0.023677)
(6.89635 0.00333441 0.0204756)
(6.8413 0.00314179 0.0297042)
(6.78919 0.00295159 0.0268223)
(6.73836 0.00292206 -0.00116729)
(6.68841 0.00284157 -0.0203696)
(6.63827 0.00280408 0.0231615)
(6.58915 0.00276935 0.0115428)
(6.54075 0.00271656 0.0180798)
(6.4935 0.0026287 0.0132331)
(6.44572 0.00255558 0.00814386)
(6.40141 0.00235429 0.0202623)
(6.35699 0.00236232 0.00504263)
(6.31272 0.00226474 0.034299)
(6.27047 0.00225773 0.0174193)
(6.22714 0.00216168 0.0110698)
(6.18626 0.00209743 -0.0111709)
(6.14556 0.00206539 0.0124153)
(6.10572 0.00197804 -0.00332707)
(6.06605 0.00190491 0.0181378)
(6.02866 0.00188217 -0.0205027)
(5.98918 0.00184671 0.0185943)
(5.95358 0.00174737 0.0223314)
(5.91629 0.00172452 0.0224172)
(5.88054 0.00168094 -0.008261)
(5.84602 0.00158379 0.0142175)
(5.81221 0.0015218 0.0185168)
(5.77927 0.00149742 0.012855)
(5.74769 0.00152857 -0.000538783)
(5.71491 0.00130623 0.0170938)
(5.69103 0.00135619 0.0172969)
(5.65338 0.000858725 0.0167131)
(29.3868 0.00345433 -7.76853e-14)
(29.3837 0.00644263 -2.92011e-12)
(29.3714 0.00882753 -1.50163e-13)
(29.3527 0.0104539 2.46384e-11)
(29.3317 0.0114216 1.71635e-10)
(29.3096 0.0118892 -2.10744e-10)
(29.2864 0.0117854 -1.33479e-08)
(29.2622 0.0111992 -9.44017e-07)
(29.237 0.0115662 2.11435e-07)
(29.2118 0.0129003 1.25236e-06)
(29.1871 0.0133661 5.11777e-06)
(29.1629 0.0124504 1.13115e-05)
(29.1394 0.0107317 1.64133e-05)
(29.1164 0.00937478 1.8705e-05)
(29.0943 0.00994624 1.89319e-05)
(29.0711 0.0116801 1.86007e-05)
(29.0441 0.0125049 1.86537e-05)
(29.0174 0.0137246 1.92209e-05)
(28.9884 0.0141806 1.99608e-05)
(28.9601 0.0133064 2.0418e-05)
(28.932 0.0124146 2.02593e-05)
(28.905 0.0122503 1.93526e-05)
(28.8776 0.0123768 1.7751e-05)
(28.8504 0.0124957 1.56227e-05)
(28.8228 0.0119204 1.32108e-05)
(28.7959 0.0119765 1.06981e-05)
(28.7658 0.0120322 8.24126e-06)
(28.7348 0.0120192 5.93929e-06)
(28.7038 0.0121119 3.85612e-06)
(28.6733 0.0124957 2.04529e-06)
(28.6407 0.0126737 5.45181e-07)
(28.6086 0.0131783 -5.94791e-07)
(28.5742 0.0137192 -1.3334e-06)
(28.5382 0.013968 -1.65483e-06)
(28.5019 0.0139431 -1.60886e-06)
(28.4646 0.0137451 -1.27129e-06)
(28.4259 0.013979 -7.24141e-07)
(28.3851 0.014815 -3.29662e-08)
(28.3435 0.0150495 6.98297e-07)
(28.3005 0.0152813 1.41515e-06)
(28.2555 0.0158754 2.06573e-06)
(28.209 0.0166303 2.62138e-06)
(28.1582 0.0169715 3.06812e-06)
(28.106 0.0175566 3.40236e-06)
(28.0503 0.0184339 3.62998e-06)
(27.9906 0.0194963 3.75709e-06)
(27.9268 0.0207534 3.7982e-06)
(27.857 0.0225142 3.76324e-06)
(27.7803 0.0248309 3.60553e-06)
(27.6954 0.0270218 3.35907e-06)
(27.6019 0.0291986 3.06309e-06)
(27.5003 0.0320239 2.73197e-06)
(27.3902 0.034802 2.38414e-06)
(27.2673 0.0383119 2.02711e-06)
(27.134 0.0415461 1.67498e-06)
(26.9885 0.0448201 1.32184e-06)
(26.8295 0.0487525 1.0073e-06)
(26.6577 0.0535377 8.16112e-07)
(26.4728 0.0571703 6.49671e-07)
(26.2793 0.0606233 4.57215e-07)
(26.0692 0.0655716 1.63528e-07)
(25.836 0.0697857 -2.79165e-06)
(25.5912 0.0728018 -0.00024531)
(25.3395 0.0750136 -0.0137608)
(25.0787 0.0789248 -0.00558641)
(24.8037 0.0813768 -0.00142704)
(24.5212 0.0832067 -0.00236029)
(24.2244 0.0844342 -0.00611185)
(23.9256 0.0859913 -0.00438595)
(23.6176 0.0870551 -0.00239922)
(23.3065 0.0862169 -0.000949828)
(22.9909 0.0846892 -0.01091)
(22.6739 0.0862342 -0.00844668)
(22.3515 0.088007 -0.00373257)
(22.0243 0.0868455 -0.0006329)
(21.7008 0.0840206 0.00159414)
(21.3801 0.0822264 0.00306514)
(21.0614 0.0816381 0.00400372)
(20.7386 0.0801231 0.00305736)
(20.4213 0.0791985 0.0015714)
(20.1076 0.0745528 0.0019822)
(19.8059 0.0724402 0.00301559)
(19.5069 0.0711819 0.00192413)
(19.2082 0.0690469 0.00130072)
(18.9152 0.0663483 0.00804677)
(18.6257 0.065963 0.0164407)
(18.3403 0.0641214 0.00984335)
(18.06 0.0630643 0.0213405)
(17.7804 0.0617355 0.0205097)
(17.5109 0.0579128 0.0338509)
(17.2455 0.0568898 0.0236615)
(16.979 0.0563174 0.027978)
(16.7151 0.0545872 0.0423917)
(16.4594 0.053 0.00360594)
(16.2072 0.0507938 0.00490549)
(15.9652 0.0482223 0.00476632)
(15.7314 0.0460436 0.000959077)
(15.5006 0.0443047 0.0119754)
(15.275 0.0436386 0.0193206)
(15.05 0.0430552 0.0312473)
(14.8304 0.0415689 0.0377123)
(14.6116 0.0406012 0.0168722)
(14.3981 0.0400546 0.0126422)
(14.1898 0.036688 -0.0449293)
(13.9898 0.0358145 -0.046471)
(13.7935 0.0348501 -0.00296647)
(13.6013 0.0334505 0.00371432)
(13.4141 0.0325425 0.00437304)
(13.2265 0.0319953 0.00826038)
(13.0472 0.0299981 0.00526229)
(12.8705 0.0292675 -0.00320234)
(12.6971 0.0286914 0.0154408)
(12.5269 0.0269552 0.0369257)
(12.3621 0.0267374 0.02754)
(12.2013 0.025613 0.00851141)
(12.0415 0.0250168 0.0046484)
(11.8853 0.023887 0.0046615)
(11.7327 0.0233106 -0.00925478)
(11.5829 0.0219727 0.0240094)
(11.4426 0.0208108 0.0442394)
(11.301 0.0208552 0.00674117)
(11.1629 0.0197285 -0.0149054)
(11.0299 0.019642 -0.020599)
(10.8917 0.0195422 0.000318265)
(10.7598 0.0186764 -0.0214511)
(10.6287 0.0182676 0.00566414)
(10.4999 0.017467 0.0335041)
(10.3756 0.016856 0.0247967)
(10.2537 0.0161265 0.00902356)
(10.1372 0.0153107 0.00824716)
(10.0213 0.015216 0.0132338)
(9.90597 0.0146288 0.0218284)
(9.79605 0.0140545 0.0196425)
(9.68694 0.0136491 0.0283547)
(9.58154 0.0130472 0.0280776)
(9.47816 0.0128882 -0.00366201)
(9.37365 0.0127452 -0.00476025)
(9.27144 0.01232 -0.0136846)
(9.17155 0.0117802 0.00791405)
(9.07438 0.0113804 -0.00839834)
(8.97997 0.0110068 0.00609349)
(8.88656 0.0104555 -0.00658405)
(8.79778 0.0102508 -0.00787002)
(8.70634 0.0102613 0.00717308)
(8.61798 0.00952771 0.00737411)
(8.53437 0.00915745 0.0151842)
(8.45048 0.00920258 0.0118968)
(8.36731 0.00886262 0.00946445)
(8.28611 0.0085667 0.0100578)
(8.2067 0.00827932 -0.00590102)
(8.12859 0.00809722 0.0138122)
(8.05144 0.00790394 0.013835)
(7.97601 0.00743177 0.0191335)
(7.90461 0.00720282 0.0147469)
(7.83192 0.00717642 0.0110044)
(7.76079 0.00693469 -0.00449149)
(7.69117 0.00677535 0.0208171)
(7.62246 0.00647523 0.0173359)
(7.55588 0.00622861 0.00922686)
(7.49093 0.0061388 0.00931837)
(7.42588 0.00602434 -0.0130744)
(7.36217 0.00586125 0.0112649)
(7.29931 0.00558421 -0.00553403)
(7.23927 0.00539464 0.00122062)
(7.17916 0.00537781 -0.00937296)
(7.11912 0.00512489 -0.0115303)
(7.06129 0.00494675 0.0149472)
(7.0057 0.00473904 0.0123147)
(6.95039 0.00477527 0.0172117)
(6.89481 0.00464227 0.0154325)
(6.83995 0.00447421 0.0212121)
(6.78777 0.00422647 0.0199847)
(6.73688 0.00411911 0.000241993)
(6.6868 0.00402556 -0.014106)
(6.6367 0.00399186 0.0147568)
(6.58768 0.00382022 0.00885024)
(6.53957 0.0037106 0.0132554)
(6.49228 0.00365246 0.00952803)
(6.44507 0.00350874 0.0066184)
(6.4003 0.00336228 0.0144514)
(6.35582 0.00331618 0.00440117)
(6.31154 0.00327137 0.0234439)
(6.26908 0.00313875 0.0131862)
(6.22605 0.00304109 0.00804305)
(6.18505 0.00291769 -0.00724769)
(6.14441 0.00285973 0.00868829)
(6.10466 0.0027986 -0.0018681)
(6.06508 0.00268448 0.0128392)
(6.02725 0.00265573 -0.0141431)
(5.98861 0.00259176 0.0122997)
(5.95251 0.0024803 0.0163155)
(5.91543 0.00244741 0.0162153)
(5.87984 0.00231158 -0.00523925)
(5.84525 0.00222454 0.00978737)
(5.81147 0.00216282 0.013478)
(5.77845 0.00206554 0.00958256)
(5.74701 0.0020616 0.000157152)
(5.71418 0.00182393 0.0120457)
(5.69052 0.00191354 0.0127979)
(5.65283 0.00121026 0.0127258)
(29.2895 0.00436402 -4.0881e-15)
(29.2863 0.00832145 -5.32109e-13)
(29.2738 0.0113864 4.30346e-12)
(29.2549 0.0134516 9.96147e-11)
(29.2337 0.0146985 2.98767e-09)
(29.2113 0.0153411 9.59361e-08)
(29.188 0.0154385 2.59179e-06)
(29.1638 0.0152 4.14116e-05)
(29.1387 0.0155378 6.69761e-05)
(29.1133 0.0163994 6.27129e-05)
(29.0884 0.0165402 4.91348e-05)
(29.0642 0.0156291 4.00295e-05)
(29.0414 0.0145951 3.55334e-05)
(29.0161 0.0132022 3.24998e-05)
(28.9915 0.0134148 2.98023e-05)
(28.9668 0.0149058 2.78473e-05)
(28.9411 0.0162703 2.7029e-05)
(28.9136 0.0171009 2.71347e-05)
(28.8874 0.0174583 2.75363e-05)
(28.8598 0.0169583 2.7568e-05)
(28.831 0.0161327 2.67917e-05)
(28.8029 0.0156239 2.50703e-05)
(28.7758 0.0155712 2.25264e-05)
(28.7489 0.0154427 1.9432e-05)
(28.7207 0.0150324 1.60947e-05)
(28.6933 0.015382 1.27746e-05)
(28.664 0.0158539 9.64932e-06)
(28.6335 0.0160072 6.81669e-06)
(28.6015 0.0159257 4.32317e-06)
(28.569 0.0161046 2.20444e-06)
(28.5364 0.0163791 4.90274e-07)
(28.5034 0.0168858 -7.83179e-07)
(28.4688 0.0175517 -1.5857e-06)
(28.4328 0.0178807 -1.91103e-06)
(28.3959 0.0180052 -1.81353e-06)
(28.3571 0.018091 -1.37423e-06)
(28.3163 0.0186002 -6.84524e-07)
(28.2745 0.0193332 1.53789e-07)
(28.2311 0.0197848 1.03063e-06)
(28.185 0.0202168 1.87809e-06)
(28.1369 0.0209453 2.63023e-06)
(28.0868 0.0218655 3.25786e-06)
(28.0326 0.0226826 3.75198e-06)
(27.9757 0.0236108 4.11565e-06)
(27.915 0.0248955 4.35715e-06)
(27.8498 0.0264883 4.48486e-06)
(27.7791 0.0283095 4.51621e-06)
(27.7014 0.0307161 4.42771e-06)
(27.6166 0.0339381 4.23424e-06)
(27.5227 0.0367614 3.95353e-06)
(27.4198 0.0397519 3.60699e-06)
(27.3084 0.0433288 3.21635e-06)
(27.187 0.0474519 2.804e-06)
(27.0552 0.0513758 2.39126e-06)
(26.9135 0.0554722 1.99169e-06)
(26.7588 0.0598182 1.60693e-06)
(26.5911 0.064801 1.27637e-06)
(26.4114 0.0701463 1.01728e-06)
(26.2212 0.0743199 7.88322e-07)
(26.021 0.0788135 5.38412e-07)
(25.8071 0.0851316 1.73957e-07)
(25.5761 0.0906964 -1.18781e-06)
(25.3352 0.093492 -5.92703e-05)
(25.086 0.0964747 -0.00287701)
(24.8272 0.100037 -0.00136113)
(24.5613 0.104133 -0.000484123)
(24.2841 0.106816 -0.00173472)
(23.9951 0.107334 -0.00436269)
(23.7035 0.108842 -0.00369511)
(23.4043 0.109881 -0.00193881)
(23.1043 0.108633 -0.000529136)
(22.7955 0.108136 -0.00473841)
(22.484 0.109269 -0.00384352)
(22.1715 0.110548 -0.00195284)
(21.8568 0.108935 -0.000489648)
(21.5437 0.106031 0.00109417)
(21.2285 0.103975 0.00194067)
(20.9166 0.103252 0.00245901)
(20.6057 0.10146 0.00193122)
(20.2959 0.099494 0.00132984)
(19.9902 0.0948254 0.00183965)
(19.693 0.0921493 0.00234737)
(19.3999 0.090586 0.00186939)
(19.1054 0.0880053 0.00147364)
(18.8183 0.0849798 0.00687689)
(18.5319 0.0839839 0.0117389)
(18.2514 0.0814571 0.00885155)
(17.9759 0.0798888 0.0156542)
(17.7041 0.0777911 0.0192215)
(17.4379 0.074096 0.0274257)
(17.1731 0.0726688 0.0196526)
(16.9121 0.0717166 0.0152659)
(16.6524 0.0694582 0.0184046)
(16.4013 0.0672158 0.00350031)
(16.1531 0.0645332 0.00375955)
(15.915 0.0613041 0.00438663)
(15.6815 0.059004 0.00229604)
(15.4544 0.0569862 0.0108259)
(15.2297 0.0556912 0.0144752)
(15.0073 0.0548566 0.0212015)
(14.7903 0.0530257 0.0271152)
(14.5739 0.05168 0.0152771)
(14.3628 0.0506272 0.00987524)
(14.1577 0.0468377 -0.0352378)
(13.9563 0.0451691 -0.0266062)
(13.7633 0.0443373 -0.00249708)
(13.5724 0.0426271 0.00294357)
(13.3858 0.0415505 0.00372941)
(13.2006 0.040006 0.00629344)
(13.0219 0.0384747 0.0043636)
(12.8463 0.0374578 -0.00171121)
(12.6742 0.0365705 0.00940545)
(12.5053 0.0346095 0.0267743)
(12.3412 0.0339659 0.0196167)
(12.1819 0.0326622 0.0074583)
(12.0233 0.0319572 0.00392973)
(11.8682 0.0305859 0.00392718)
(11.7164 0.0297355 -0.00645797)
(11.5677 0.0281715 0.0163211)
(11.4262 0.0268549 0.0330728)
(11.2853 0.0265291 0.00716433)
(11.1479 0.025314 -0.0105845)
(11.0143 0.0250904 -0.0156154)
(10.878 0.0247821 -0.000388051)
(10.7466 0.0238439 -0.010988)
(10.6165 0.0232573 0.00361828)
(10.4887 0.0223197 0.0227914)
(10.3648 0.0215265 0.0130533)
(10.2437 0.020567 0.00703409)