/*--------------------------------*- C++ -*----------------------------------*\
| =========                 |                                                 |
| \\      /  F ield         | OpenFOAM: The Open Source CFD Toolbox           |
|  \\    /   O peration     | Version:  1.7.0                                 |
|   \\  /    A nd           | Web:      www.OpenFOAM.com                      |
|    \\/     M anipulation  |                                                 |
\*---------------------------------------------------------------------------*/
FoamFile
{
    version     2.0;
    format      ascii;
    class       scalarField;
    location    "0.252/lagrangian/defaultCloud";
    object      d;
}
// * * * * * * * * * * * * * * * * * * * * * * * * * * * * * * * * * * * * * //


24703
(
1.04289e-05
8.91116e-06
8.77457e-06
8.46387e-06
1.02611e-05
9.80078e-06
9.52306e-06
9.57365e-06
1.56641e-05
1.48599e-05
1.07783e-05
1.76369e-05
1.17159e-05
1.09079e-05
1.47347e-05
1.0363e-05
9.69154e-06
1.35868e-05
1.14095e-05
9.97713e-06
8.75721e-06
1.25448e-05
9.54567e-06
1.72964e-05
1.37055e-05
1.7336e-05
2.55168e-05
8.95948e-06
2.18968e-05
1.23241e-05
1.28391e-05
1.13341e-05
1.41031e-05
1.19268e-05
1.02596e-05
9.94402e-06
9.40124e-06
9.26646e-06
2.89203e-05
8.52993e-06
1.15537e-05
1.08164e-05
1.31079e-05
8.67881e-06
1.44675e-05
9.84e-06
8.44327e-06
1.09081e-05
3.07763e-05
8.90721e-06
9.92641e-06
9.0494e-06
7.58218e-06
9.11079e-06
1.03958e-05
1.62675e-05
9.83081e-06
7.72573e-06
1.06627e-05
1.04878e-05
1.1893e-05
1.3876e-05
9.80599e-06
1.01756e-05
8.13936e-06
1.42375e-05
1.43058e-05
8.52884e-06
9.33373e-06
1.19583e-05
1.22987e-05
1.59925e-05
1.24686e-05
1.00387e-05
8.36915e-06
1.78072e-05
1.03404e-05
1.40627e-05
1.29731e-05
1.12473e-05
1.3238e-05
9.98794e-06
8.73165e-06
1.18707e-05
1.05412e-05
1.59135e-05
1.35735e-05
1.13638e-05
1.18205e-05
9.83191e-06
1.11556e-05
8.00388e-06
1.3568e-05
9.23615e-06
1.67969e-05
1.11965e-05
9.83763e-06
1.60637e-05
9.3595e-06
9.54828e-06
2.09278e-05
8.31639e-06
1.90462e-05
1.42085e-05
1.76188e-05
8.87012e-06
1.23267e-05
9.41362e-06
1.95325e-05
9.83257e-06
8.71994e-06
1.1582e-05
9.16791e-06
8.40839e-06
8.30885e-06
1.33423e-05
8.31134e-06
1.29077e-05
1.19104e-05
1.07253e-05
1.56993e-05
8.68369e-06
1.31549e-05
8.69648e-06
7.92703e-06
1.23282e-05
1.75485e-05
1.19232e-05
8.20725e-06
1.65278e-05
9.79315e-06
7.58519e-06
1.94659e-05
9.73314e-06
7.88474e-06
9.79674e-06
1.27474e-05
7.90184e-06
1.1531e-05
1.16405e-05
9.84855e-06
8.89359e-06
1.08869e-05
1.61823e-05
9.98177e-06
1.45037e-05
8.21328e-06
9.72435e-06
1.13281e-05
9.77675e-06
8.36636e-06
1.22062e-05
7.81605e-06
1.04886e-05
9.67093e-06
1.29493e-05
1.31978e-05
1.39012e-05
1.44941e-05
1.16054e-05
1.29272e-05
8.18718e-06
1.23369e-05
9.21264e-06
9.85527e-06
8.56686e-06
1.28761e-05
9.86456e-06
9.83682e-06
1.16796e-05
1.43093e-05
9.78176e-06
9.98643e-06
8.96487e-06
1.21306e-05
1.13322e-05
8.34169e-06
9.24062e-06
1.31462e-05
1.36224e-05
1.39741e-05
1.07319e-05
1.21025e-05
1.37891e-05
9.98605e-06
9.12744e-06
8.99335e-06
1.58716e-05
7.96171e-06
1.54322e-05
1.32768e-05
9.33417e-06
9.68037e-06
1.06576e-05
9.34707e-06
1.06097e-05
8.05998e-06
1.54426e-05
1.49121e-05
7.75165e-06
1.46235e-05
1.70238e-05
1.06685e-05
1.54807e-05
9.5439e-06
1.00862e-05
1.81681e-05
8.73993e-06
8.43454e-06
1.7147e-05
9.2483e-06
1.51213e-05
1.04655e-05
2.02132e-05
8.80842e-06
7.49982e-06
1.06704e-05
1.09814e-05
1.1818e-05
1.05526e-05
1.5782e-05
1.1372e-05
2.78031e-05
1.47159e-05
8.14993e-06
1.40099e-05
1.38422e-05
8.20701e-06
1.26793e-05
9.79632e-06
8.45435e-06
1.266e-05
9.33378e-06
1.14948e-05
1.63232e-05
1.42623e-05
7.67359e-06
8.90828e-06
1.02364e-05
9.13419e-06
8.26389e-06
1.80381e-05
1.7513e-05
9.22879e-06
1.16182e-05
1.64628e-05
1.62373e-05
8.55892e-06
1.03677e-05
1.33796e-05
1.0039e-05
1.38437e-05
1.51894e-05
1.47611e-05
9.57517e-06
1.20954e-05
3.38656e-05
2.2588e-05
1.55109e-05
1.20289e-05
8.10734e-06
1.38939e-05
1.28667e-05
7.53685e-06
1.88981e-05
1.15759e-05
8.04439e-06
8.86152e-06
1.29336e-05
1.27108e-05
1.32831e-05
1.4825e-05
1.48095e-05
1.07439e-05
1.29202e-05
1.23022e-05
9.35078e-06
1.26432e-05
1.15558e-05
2.11392e-05
9.80237e-06
9.4535e-06
8.76396e-06
7.70131e-06
1.42272e-05
7.94903e-06
1.54883e-05
1.08013e-05
1.24628e-05
2.04183e-05
1.1665e-05
8.32562e-06
1.12399e-05
1.19784e-05
1.27968e-05
1.4114e-05
1.19599e-05
1.6586e-05
9.99274e-06
1.24463e-05
1.4312e-05
1.25401e-05
1.33863e-05
1.65569e-05
9.00918e-06
1.40767e-05
8.07386e-06
1.09631e-05
1.61991e-05
1.09674e-05
9.33913e-06
1.1708e-05
8.71075e-06
8.18016e-06
1.76382e-05
8.12504e-06
1.26674e-05
1.1316e-05
1.6733e-05
1.22003e-05
9.11968e-06
7.55712e-06
1.10441e-05
1.42187e-05
1.83845e-05
1.30604e-05
9.6112e-06
1.01129e-05
1.05674e-05
9.46709e-06
8.16014e-06
1.76109e-05
1.36638e-05
1.1118e-05
1.39e-05
1.51977e-05
1.45942e-05
1.46007e-05
1.18893e-05
9.87682e-06
2.24053e-05
7.89544e-06
9.47027e-06
1.02179e-05
7.65822e-06
1.05075e-05
8.69229e-06
2.11073e-05
9.92016e-06
8.73228e-06
1.11399e-05
1.34085e-05
9.63437e-06
1.07429e-05
1.13128e-05
1.54718e-05
8.19275e-06
8.63416e-06
1.31279e-05
2.0345e-05
9.87148e-06
7.70248e-06
9.74136e-06
8.62194e-06
1.63936e-05
2.49587e-05
1.2305e-05
1.05912e-05
1.76898e-05
1.2026e-05
1.78324e-05
8.13439e-06
2.05781e-05
1.42757e-05
1.23918e-05
1.03775e-05
1.91897e-05
7.86992e-06
1.05159e-05
1.05836e-05
1.22768e-05
9.0513e-06
1.98545e-05
1.21303e-05
1.05919e-05
1.27974e-05
1.32237e-05
1.14192e-05
8.29885e-06
1.34304e-05
1.19026e-05
1.80031e-05
1.09444e-05
2.31586e-05
1.0208e-05
1.44417e-05
1.13375e-05
1.35745e-05
1.0238e-05
1.5258e-05
1.18384e-05
1.34865e-05
9.23061e-06
1.90104e-05
1.28684e-05
1.41338e-05
1.20729e-05
8.59315e-06
1.09843e-05
1.10781e-05
1.83422e-05
8.93493e-06
1.77471e-05
8.83992e-06
1.61641e-05
1.16406e-05
1.08583e-05
1.64554e-05
1.02434e-05
9.07535e-06
9.76004e-06
1.46004e-05
1.39774e-05
7.89909e-06
9.87637e-06
1.0233e-05
1.70633e-05
1.02358e-05
7.6988e-06
9.99925e-06
1.1032e-05
1.15254e-05
1.53314e-05
1.72736e-05
9.45112e-06
1.09172e-05
1.48053e-05
2.80608e-05
1.02464e-05
1.10883e-05
8.33744e-06
1.23834e-05
1.4505e-05
1.02244e-05
1.11553e-05
9.85125e-06
8.76149e-06
1.07693e-05
2.37424e-05
7.89958e-06
1.21033e-05
9.33032e-06
1.03441e-05
1.32584e-05
1.47218e-05
1.15224e-05
1.47845e-05
2.15596e-05
1.27103e-05
8.38665e-06
1.22037e-05
7.99526e-06
8.4493e-06
1.84387e-05
1.61635e-05
1.49307e-05
1.01474e-05
1.28405e-05
1.15914e-05
1.01527e-05
1.8203e-05
1.55605e-05
1.10637e-05
9.52148e-06
1.10876e-05
8.10772e-06
1.61345e-05
8.54255e-06
1.24986e-05
1.03021e-05
8.08284e-06
1.50247e-05
1.50187e-05
9.08527e-06
1.10698e-05
2.42166e-05
1.77798e-05
8.70394e-06
1.35257e-05
1.19124e-05
1.20574e-05
1.15673e-05
1.81083e-05
1.55775e-05
2.58274e-05
1.02764e-05
1.31499e-05
1.22614e-05
9.44216e-06
1.2342e-05
1.94341e-05
2.38224e-05
1.24249e-05
2.71903e-05
1.34155e-05
1.51025e-05
1.41594e-05
1.27919e-05
8.09018e-06
2.57564e-05
9.49371e-06
1.71187e-05
2.88047e-05
2.17966e-05
1.204e-05
1.63843e-05
2.80192e-05
1.13974e-05
1.36584e-05
8.34896e-06
9.96391e-06
1.67325e-05
1.64283e-05
2.09361e-05
1.17474e-05
1.65787e-05
8.66381e-06
1.53686e-05
2.14915e-05
1.26685e-05
2.0798e-05
1.19323e-05
1.32561e-05
1.41576e-05
9.65038e-06
1.17424e-05
8.43568e-06
8.20488e-06
8.6155e-06
1.57181e-05
1.45444e-05
1.25586e-05
9.10034e-06
1.23073e-05
1.25524e-05
1.14215e-05
1.35756e-05
1.32838e-05
1.30327e-05
8.03601e-06
1.0698e-05
1.03729e-05
1.10535e-05
8.32773e-06
1.04483e-05
1.35742e-05
1.19732e-05
1.59506e-05
1.24138e-05
1.26423e-05
8.25102e-06
1.78463e-05
9.97358e-06
1.29414e-05
1.21454e-05
9.39461e-06
8.84835e-06
2.09263e-05
1.58155e-05
1.79184e-05
1.53299e-05
1.14342e-05
2.13559e-05
1.24948e-05
9.00912e-06
9.04022e-06
3.31742e-05
1.19448e-05
1.90216e-05
1.68442e-05
1.17946e-05
1.46468e-05
1.10664e-05
1.64355e-05
1.12581e-05
1.35776e-05
1.06756e-05
1.62405e-05
1.29032e-05
1.52005e-05
8.80208e-06
1.04809e-05
8.68475e-06
1.43907e-05
1.4739e-05
1.39399e-05
2.38516e-05
1.04914e-05
1.08835e-05
1.05898e-05
1.12162e-05
1.23985e-05
2.18445e-05
1.99343e-05
8.12123e-06
1.43335e-05
1.11046e-05
8.63493e-06
1.12011e-05
1.17007e-05
1.28028e-05
2.13378e-05
1.13866e-05
8.92737e-06
1.2672e-05
9.05332e-06
8.93876e-06
1.67753e-05
9.49937e-06
1.56026e-05
1.01418e-05
1.10845e-05
8.48413e-06
1.59607e-05
9.85172e-06
1.38603e-05
1.34825e-05
1.34213e-05
1.32681e-05
8.22107e-06
1.48962e-05
1.69483e-05
1.12684e-05
1.79838e-05
1.33751e-05
1.75783e-05
8.40724e-06
1.39785e-05
1.26249e-05
1.36205e-05
1.00959e-05
1.52979e-05
1.34363e-05
1.21254e-05
1.43371e-05
1.65548e-05
1.04179e-05
1.89022e-05
9.95841e-06
1.59422e-05
1.12591e-05
1.01901e-05
1.32842e-05
2.05357e-05
2.53722e-05
1.66129e-05
1.39726e-05
1.01537e-05
1.98686e-05
1.13996e-05
9.42682e-06
8.05364e-06
1.56858e-05
9.65251e-06
1.66017e-05
1.80657e-05
1.01735e-05
1.53298e-05
9.36219e-06
1.48316e-05
1.32732e-05
1.49533e-05
9.84077e-06
9.11076e-06
9.63396e-06
1.32293e-05
1.38896e-05
1.99306e-05
1.14291e-05
1.97226e-05
9.24597e-06
1.39607e-05
8.4123e-06
1.34676e-05
9.28153e-06
1.18151e-05
9.08349e-06
2.2202e-05
1.12845e-05
8.92399e-06
1.76346e-05
1.00183e-05
8.82199e-06
1.12327e-05
1.24241e-05
1.15249e-05
2.37208e-05
1.77874e-05
2.04476e-05
1.28355e-05
1.20232e-05
2.0213e-05
1.31122e-05
1.58757e-05
1.56616e-05
1.34008e-05
1.1202e-05
2.01561e-05
9.39307e-06
1.33102e-05
2.69414e-05
1.29407e-05
1.61833e-05
8.62275e-06
9.89813e-06
1.23407e-05
1.0781e-05
1.02281e-05
1.5269e-05
1.10308e-05
1.03599e-05
1.17547e-05
8.50331e-06
8.95494e-06
1.15841e-05
1.11274e-05
9.16734e-06
9.37625e-06
2.08027e-05
8.94318e-06
2.17073e-05
8.7651e-06
9.69364e-06
1.70912e-05
9.53795e-06
1.82775e-05
9.66174e-06
1.57492e-05
1.02808e-05
1.91969e-05
1.69191e-05
1.59201e-05
1.14058e-05
8.96289e-06
1.29102e-05
1.11977e-05
1.58533e-05
2.34244e-05
9.3347e-06
1.19382e-05
8.14059e-06
1.89826e-05
9.31734e-06
8.22557e-06
1.31374e-05
9.59892e-06
1.43538e-05
1.466e-05
1.16339e-05
9.66148e-06
8.13969e-06
1.03749e-05
1.29481e-05
1.46698e-05
7.38397e-06
1.25696e-05
1.46116e-05
1.57897e-05
1.34616e-05
1.00252e-05
1.80884e-05
1.30858e-05
1.09737e-05
1.04696e-05
1.44249e-05
1.6454e-05
1.67487e-05
1.29463e-05
1.27137e-05
1.04181e-05
1.02651e-05
1.22478e-05
8.87744e-06
1.38807e-05
2.6818e-05
1.02951e-05
9.78818e-06
8.74374e-06
1.34424e-05
8.91955e-06
1.45501e-05
1.25795e-05
2.01179e-05
8.94776e-06
8.17532e-06
9.27202e-06
7.70311e-06
2.11892e-05
7.96289e-06
1.06505e-05
1.03818e-05
1.16778e-05
2.11983e-05
9.98464e-06
1.34303e-05
8.66526e-06
9.24586e-06
1.54766e-05
1.08914e-05
1.14504e-05
2.8763e-05
1.82376e-05
1.46339e-05
1.31688e-05
9.62111e-06
1.09688e-05
1.44777e-05
1.75439e-05
1.22257e-05
1.28232e-05
1.13897e-05
7.91667e-06
2.09047e-05
1.12986e-05
2.08645e-05
1.35768e-05
8.20235e-06
1.09984e-05
2.20243e-05
1.59452e-05
9.68981e-06
1.91867e-05
9.26442e-06
1.93242e-05
1.12583e-05
1.65942e-05
1.02585e-05
1.12017e-05
2.01353e-05
1.70906e-05
1.48355e-05
9.88794e-06
1.08406e-05
1.86326e-05
7.91866e-06
1.04004e-05
1.27355e-05
1.94163e-05
1.19532e-05
1.00914e-05
3.08906e-05
1.11302e-05
9.81233e-06
1.28159e-05
1.62884e-05
1.40932e-05
1.12177e-05
1.01074e-05
2.0184e-05
1.51771e-05
2.19905e-05
1.01133e-05
1.47764e-05
1.03136e-05
1.61834e-05
1.58251e-05
1.7092e-05
1.07176e-05
1.1394e-05
1.54909e-05
1.45769e-05
1.28626e-05
9.24895e-06
1.04754e-05
8.38011e-06
8.52651e-06
1.34772e-05
1.73084e-05
8.91162e-06
1.19485e-05
1.21848e-05
1.57003e-05
1.1125e-05
9.52058e-06
9.34773e-06
8.58823e-06
1.08151e-05
1.66972e-05
1.11556e-05
1.30548e-05
8.8641e-06
8.88122e-06
8.88151e-06
8.13343e-06
1.24623e-05
8.4324e-06
1.75074e-05
2.26193e-05
2.46671e-05
1.7784e-05
1.8396e-05
1.91261e-05
1.52485e-05
1.27217e-05
1.00645e-05
1.99429e-05
1.63589e-05
2.25204e-05
1.23882e-05
1.00006e-05
1.16085e-05
1.04124e-05
1.18081e-05
1.60223e-05
8.39789e-06
1.14733e-05
1.22406e-05
1.67361e-05
1.01126e-05
1.85656e-05
1.9215e-05
2.12612e-05
1.374e-05
7.85774e-06
2.58963e-05
1.20315e-05
1.10394e-05
9.39446e-06
1.26011e-05
8.57487e-06
9.79663e-06
1.25315e-05
1.08715e-05
2.1848e-05
2.58443e-05
1.86954e-05
8.38669e-06
1.41239e-05
1.12728e-05
1.38172e-05
9.98975e-06
1.76195e-05
1.08496e-05
1.40453e-05
9.0108e-06
2.08963e-05
9.58298e-06
1.17231e-05
1.31223e-05
2.24379e-05
8.15832e-06
9.29412e-06
1.76309e-05
1.53855e-05
8.70988e-06
1.13964e-05
9.33345e-06
1.24662e-05
8.34685e-06
8.83739e-06
1.17598e-05
1.03833e-05
1.11027e-05
1.29899e-05
8.68256e-06
7.55136e-06
1.35778e-05
1.10647e-05
2.04112e-05
1.87367e-05
1.42063e-05
2.0358e-05
1.18297e-05
1.62154e-05
9.85905e-06
1.43921e-05
1.31718e-05
1.95606e-05
1.4165e-05
1.63345e-05
1.52358e-05
1.5199e-05
1.20916e-05
1.78034e-05
1.31928e-05
1.48295e-05
2.01983e-05
9.1263e-06
2.39122e-05
1.26099e-05
1.77466e-05
9.77583e-06
1.17067e-05
1.95528e-05
9.29093e-06
1.16615e-05
1.05675e-05
1.60409e-05
1.03155e-05
1.96374e-05
1.11857e-05
8.23087e-06
1.20665e-05
1.02687e-05
1.38291e-05
1.05631e-05
1.09214e-05
8.08127e-06
9.48267e-06
8.28138e-06
8.6584e-06
9.77734e-06
2.14613e-05
1.03543e-05
1.14726e-05
1.04662e-05
1.14568e-05
9.2993e-06
1.88169e-05
9.03669e-06
1.13254e-05
1.25809e-05
1.42134e-05
2.15588e-05
2.14632e-05
9.14029e-06
8.48543e-06
1.00987e-05
1.11028e-05
2.11396e-05
1.14125e-05
9.04291e-06
1.80946e-05
8.83169e-06
8.41206e-06
1.13234e-05
1.09652e-05
1.06362e-05
1.62597e-05
2.54468e-05
1.02623e-05
2.37899e-05
1.20689e-05
1.00972e-05
8.77592e-06
1.21194e-05
8.09824e-06
1.23101e-05
8.59918e-06
1.17284e-05
2.59043e-05
1.32153e-05
1.45236e-05
8.4766e-06
1.71634e-05
2.41119e-05
1.9452e-05
1.86036e-05
1.69836e-05
1.42127e-05
1.54183e-05
8.53765e-06
1.13592e-05
1.21845e-05
1.38578e-05
1.7058e-05
1.05122e-05
8.34038e-06
2.44906e-05
1.47993e-05
1.49868e-05
1.2772e-05
9.97954e-06
1.41501e-05
1.47714e-05
2.25228e-05
1.19049e-05
7.95333e-06
1.38302e-05
1.03805e-05
9.78712e-06
9.95389e-06
1.03507e-05
1.0914e-05
1.52052e-05
1.15065e-05
1.20035e-05
7.53488e-06
1.41395e-05
1.20209e-05
1.22451e-05
1.66802e-05
1.51779e-05
1.92049e-05
9.13254e-06
1.11435e-05
1.07349e-05
1.14025e-05
1.26979e-05
9.94723e-06
1.59256e-05
1.09771e-05
9.26811e-06
1.06201e-05
8.19338e-06
8.26714e-06
1.21631e-05
8.31546e-06
1.73193e-05
1.17969e-05
1.55265e-05
9.57078e-06
1.00811e-05
1.58137e-05
9.11572e-06
1.55362e-05
1.06092e-05
1.00605e-05
1.61174e-05
1.24885e-05
2.11865e-05
1.12012e-05
1.86623e-05
1.34339e-05
1.63106e-05
2.43869e-05
1.24099e-05
1.63358e-05
1.32554e-05
9.25709e-06
1.32145e-05
1.10472e-05
1.18616e-05
8.03682e-06
1.88736e-05
9.38786e-06
8.53213e-06
9.43009e-06
2.34042e-05
9.57225e-06
1.24744e-05
1.46154e-05
2.05161e-05
1.08722e-05
1.06077e-05
1.74763e-05
1.66694e-05
9.16395e-06
3.37913e-05
1.4684e-05
2.92197e-05
1.68285e-05
9.90699e-06
1.59223e-05
9.98782e-06
1.25414e-05
9.01863e-06
9.24583e-06
9.87989e-06
1.58086e-05
2.72627e-05
1.53337e-05
1.06614e-05
1.1744e-05
1.02469e-05
1.32086e-05
8.61792e-06
1.16499e-05
1.4315e-05
2.08975e-05
2.37452e-05
1.16032e-05
1.315e-05
1.00856e-05
1.10966e-05
1.28592e-05
1.54231e-05
1.55615e-05
1.00105e-05
9.42885e-06
9.21929e-06
1.16183e-05
1.43853e-05
9.32916e-06
1.39209e-05
1.2106e-05
1.27877e-05
1.53512e-05
9.26616e-06
1.38195e-05
1.63887e-05
1.78518e-05
1.11203e-05
7.65026e-06
1.09451e-05
1.25002e-05
1.32027e-05
8.51019e-06
2.21404e-05
1.07726e-05
1.22167e-05
8.11014e-06
1.19648e-05
3.34636e-05
1.30911e-05
2.03248e-05
1.33945e-05
1.89319e-05
1.48301e-05
1.32089e-05
1.05782e-05
9.54978e-06
1.51648e-05
8.75219e-06
1.43785e-05
2.05683e-05
1.10938e-05
1.52468e-05
1.28517e-05
2.53018e-05
1.81853e-05
9.65638e-06
8.32397e-06
2.79665e-05
9.16109e-06
1.5449e-05
1.20935e-05
1.40848e-05
1.17692e-05
1.16572e-05
8.12296e-06
1.41373e-05
1.82559e-05
3.19631e-05
1.27312e-05
1.64552e-05
1.05777e-05
1.69956e-05
1.48938e-05
2.22356e-05
7.83729e-06
1.60899e-05
9.87368e-06
9.3253e-06
1.14313e-05
2.86173e-05
1.3661e-05
1.0887e-05
1.05484e-05
3.11783e-05
1.12969e-05
1.22265e-05
1.2032e-05
8.36917e-06
1.52739e-05
2.89187e-05
9.18511e-06
1.37071e-05
1.02869e-05
1.28865e-05
8.87065e-06
9.25778e-06
1.16856e-05
1.51647e-05
1.41527e-05
7.60439e-06
1.30079e-05
7.83616e-06
1.39095e-05
8.47008e-06
8.36378e-06
1.13605e-05
2.0829e-05
1.58199e-05
8.64734e-06
2.04914e-05
1.46524e-05
1.4645e-05
1.48254e-05
1.8038e-05
1.28984e-05
1.2063e-05
1.99303e-05
1.01914e-05
1.89264e-05
1.53014e-05
8.99965e-06
1.17907e-05
2.18369e-05
1.34193e-05
1.03986e-05
1.05413e-05
1.01452e-05
1.69823e-05
1.32792e-05
1.35544e-05
1.60685e-05
1.72796e-05
1.94125e-05
1.71347e-05
1.54886e-05
1.07439e-05
2.21043e-05
1.35633e-05
1.06874e-05
8.06342e-06
2.33427e-05
1.72899e-05
9.46012e-06
9.40964e-06
8.80039e-06
1.73023e-05
1.35598e-05
1.62839e-05
1.23023e-05
8.20593e-06
1.24806e-05
1.03483e-05
2.43797e-05
1.42986e-05
1.80127e-05
1.00207e-05
9.31725e-06
1.32586e-05
1.96069e-05
1.09739e-05
2.07524e-05
8.70202e-06
1.27352e-05
1.37808e-05
1.36302e-05
1.41474e-05
1.64514e-05
1.2414e-05
1.07451e-05
1.60337e-05
1.81087e-05
1.13051e-05
1.21813e-05
8.50829e-06
7.79707e-06
8.17398e-06
1.21554e-05
1.52473e-05
9.73156e-06
2.30299e-05
8.89077e-06
9.69126e-06
1.54633e-05
1.15918e-05
8.62202e-06
1.41236e-05
1.19538e-05
8.98758e-06
4.02256e-05
1.3845e-05
9.71787e-06
8.97225e-06
8.83504e-06
1.40419e-05
1.01888e-05
1.50518e-05
9.70302e-06
1.21621e-05
9.26618e-06
1.48109e-05
7.73893e-06
9.67425e-06
9.66704e-06
2.7446e-05
2.01582e-05
1.5003e-05
1.0104e-05
8.27008e-06
1.28946e-05
1.19286e-05
1.07916e-05
1.87319e-05
1.33086e-05
1.22368e-05
8.59144e-06
1.54666e-05
1.08257e-05
1.5016e-05
1.52473e-05
1.47932e-05
2.58217e-05
2.04258e-05
1.83432e-05
1.60397e-05
2.01551e-05
1.12025e-05
1.63352e-05
1.51071e-05
1.11821e-05
1.21226e-05
1.96019e-05
1.08977e-05
1.20175e-05
1.34205e-05
1.52191e-05
9.29578e-06
2.16641e-05
1.04214e-05
1.1641e-05
8.38557e-06
1.21838e-05
9.30181e-06
1.20037e-05
1.9381e-05
9.98589e-06
1.40353e-05
1.08635e-05
1.51997e-05
2.49605e-05
8.76459e-06
1.35486e-05
1.18835e-05
1.58843e-05
1.64334e-05
1.77288e-05
1.18793e-05
1.43508e-05
7.57058e-06
1.4967e-05
2.53209e-05
1.5015e-05
1.81127e-05
1.68364e-05
1.67391e-05
1.22408e-05
1.51485e-05
1.38196e-05
1.05864e-05
1.11856e-05
1.25332e-05
9.29414e-06
1.22438e-05
1.38547e-05
9.24888e-06
1.33289e-05
1.18617e-05
7.894e-06
1.84823e-05
1.32184e-05
1.16689e-05
1.06001e-05
1.86811e-05
1.63112e-05
1.29696e-05
1.14647e-05
7.70871e-06
9.17956e-06
2.04766e-05
1.30897e-05
1.26849e-05
2.83081e-05
1.85387e-05
1.33101e-05
1.94603e-05
1.05838e-05
1.55801e-05
1.94769e-05
1.02751e-05
1.25864e-05
1.43484e-05
9.69478e-06
1.06141e-05
1.32242e-05
1.33325e-05
1.73518e-05
1.00205e-05
1.1594e-05
1.11805e-05
1.18585e-05
1.64694e-05
2.12694e-05
1.10799e-05
2.05852e-05
1.80919e-05
2.1242e-05
1.04936e-05
8.31021e-06
2.03626e-05
7.65638e-06
1.26838e-05
1.27843e-05
9.53133e-06
7.71435e-06
9.91521e-06
1.04611e-05
1.29713e-05
1.03422e-05
9.07405e-06
9.44898e-06
1.11968e-05
9.28572e-06
1.52439e-05
9.97312e-06
1.63312e-05
9.1543e-06
9.13445e-06
1.0329e-05
9.16893e-06
1.18696e-05
1.11934e-05
8.06436e-06
1.01827e-05
9.59198e-06
1.90297e-05
1.04828e-05
1.65355e-05
1.62034e-05
1.25682e-05
1.14483e-05
1.44346e-05
1.50023e-05
1.76263e-05
1.63537e-05
1.96258e-05
1.17689e-05
1.40614e-05
1.4528e-05
1.53278e-05
1.15073e-05
1.30449e-05
1.20554e-05
1.46592e-05
1.33487e-05
2.10552e-05
1.10667e-05
1.10776e-05
8.65011e-06
1.6826e-05
1.05156e-05
1.48678e-05
1.3145e-05
9.02048e-06
1.95466e-05
1.1837e-05
1.25975e-05
1.9725e-05
9.15127e-06
1.38667e-05
1.14339e-05
2.2717e-05
1.36705e-05
1.06004e-05
2.31e-05
2.00007e-05
1.4567e-05
1.45021e-05
1.13446e-05
1.66017e-05
1.59211e-05
9.9605e-06
9.34376e-06
8.0547e-06
1.40734e-05
1.4825e-05
1.22551e-05
9.84595e-06
2.17325e-05
1.58776e-05
9.29907e-06
1.21071e-05
1.63283e-05
1.37507e-05
1.17223e-05
8.06851e-06
1.61601e-05
8.34421e-06
7.95376e-06
1.1365e-05
1.49705e-05
1.02807e-05
1.47822e-05
1.45346e-05
1.26227e-05
1.29262e-05
2.16714e-05
1.67193e-05
1.14933e-05
1.73178e-05
2.22119e-05
1.60311e-05
1.99963e-05
1.45138e-05
9.8185e-06
1.52775e-05
9.68835e-06
1.38032e-05
1.30199e-05
1.07751e-05
9.16523e-06
9.49178e-06
1.51919e-05
9.22385e-06
8.79511e-06
1.97537e-05
1.84063e-05
1.06107e-05
1.96791e-05
1.28981e-05
2.45454e-05
1.33329e-05
1.38669e-05
1.77756e-05
2.33348e-05
1.55627e-05
1.49255e-05
1.96769e-05
2.3012e-05
9.75925e-06
2.22518e-05
9.96602e-06
9.79737e-06
9.90425e-06
1.7181e-05
2.23484e-05
7.56163e-06
8.09716e-06
2.28673e-05
2.206e-05
1.44381e-05
1.33659e-05
1.06984e-05
1.20855e-05
8.0996e-06
1.4393e-05
2.7917e-05
1.1594e-05
1.54046e-05
1.06741e-05
1.13678e-05
1.07014e-05
1.43552e-05
8.61294e-06
1.09366e-05
2.32034e-05
1.22406e-05
1.68004e-05
1.66965e-05
9.7924e-06
1.13546e-05
8.58921e-06
1.58824e-05
1.08793e-05
7.8624e-06
1.2052e-05
1.54369e-05
2.82588e-05
1.83234e-05
9.92179e-06
2.0713e-05
1.53054e-05
1.61777e-05
1.2433e-05
1.36009e-05
9.99899e-06
8.78109e-06
1.29451e-05
1.15073e-05
8.11511e-06
1.48665e-05
8.77573e-06
9.29423e-06
1.04151e-05
1.95833e-05
9.45507e-06
1.06537e-05
1.18332e-05
1.01472e-05
1.54704e-05
1.1958e-05
1.83821e-05
1.96576e-05
8.97658e-06
1.58125e-05
1.02129e-05
1.03346e-05
1.16853e-05
2.62065e-05
1.23595e-05
1.40759e-05
8.82977e-06
1.01118e-05
1.2942e-05
1.60449e-05
1.60942e-05
1.84753e-05
1.68741e-05
1.4346e-05
1.46388e-05
1.59257e-05
1.20365e-05
1.17453e-05
8.81796e-06
1.85107e-05
1.34957e-05
1.05782e-05
1.50386e-05
2.0928e-05
1.18023e-05
1.37318e-05
8.40894e-06
9.85937e-06
1.43766e-05
9.26594e-06
9.88313e-06
9.21466e-06
1.5423e-05
1.48803e-05
1.96133e-05
9.67765e-06
2.53705e-05
1.57438e-05
1.1453e-05
1.52751e-05
1.67942e-05
1.07474e-05
1.13203e-05
1.08493e-05
2.00856e-05
1.2665e-05
1.188e-05
2.12471e-05
1.04163e-05
1.24561e-05
2.01333e-05
9.57067e-06
9.60111e-06
1.63989e-05
2.0466e-05
1.95663e-05
1.59729e-05
1.04206e-05
7.99389e-06
9.92635e-06
1.66715e-05
1.80729e-05
9.16499e-06
9.95458e-06
1.57947e-05
1.5337e-05
1.27451e-05
1.18999e-05
2.18596e-05
2.00511e-05
1.59138e-05
1.01515e-05
1.45496e-05
1.49033e-05
9.9973e-06
2.04341e-05
1.93015e-05
8.6396e-06
1.87153e-05
2.57914e-05
9.67391e-06
9.53216e-06
1.33495e-05
1.58525e-05
2.19125e-05
1.29965e-05
2.10095e-05
9.06845e-06
1.03232e-05
1.00154e-05
1.00345e-05
1.20478e-05
8.14617e-06
1.25781e-05
1.78051e-05
1.43109e-05
1.59744e-05
1.0315e-05
2.13051e-05
2.00512e-05
1.0801e-05
1.76137e-05
1.79239e-05
1.07291e-05
1.53395e-05
1.15795e-05
9.77227e-06
1.42057e-05
1.5648e-05
1.79521e-05
1.32148e-05
1.82266e-05
1.63591e-05
1.06411e-05
1.60662e-05
1.27719e-05
2.17005e-05
1.25977e-05
1.31172e-05
1.07384e-05
1.15129e-05
1.95047e-05
2.33277e-05
1.87247e-05
1.18801e-05
8.83277e-06
1.14285e-05
1.88457e-05
1.03111e-05
1.19435e-05
1.13239e-05
1.20684e-05
1.19002e-05
8.8875e-06
1.07789e-05
1.04014e-05
1.16594e-05
1.02821e-05
1.31193e-05
1.32672e-05
9.0561e-06
1.88423e-05
1.40517e-05
1.69034e-05
1.07588e-05
1.52292e-05
9.99481e-06
9.59054e-06
1.21494e-05
1.09694e-05
2.03432e-05
1.32196e-05
1.49286e-05
9.23244e-06
1.20887e-05
2.19638e-05
1.15079e-05
8.79416e-06
1.03607e-05
2.262e-05
2.46485e-05
2.52186e-05
1.24847e-05
1.95057e-05
1.51849e-05
9.41371e-06
1.07158e-05
1.1746e-05
9.27371e-06
1.74515e-05
1.00405e-05
1.114e-05
1.50703e-05
9.28043e-06
1.29173e-05
1.7427e-05
1.06779e-05
1.59714e-05
9.40152e-06
2.4993e-05
2.2104e-05
1.59981e-05
1.39224e-05
1.42813e-05
3.15532e-05
1.49479e-05
1.81948e-05
2.57254e-05
8.35578e-06
8.91352e-06
8.62914e-06
9.29054e-06
1.47975e-05
1.28824e-05
9.32674e-06
8.07239e-06
7.73725e-06
1.30894e-05
1.0037e-05
1.77752e-05
1.23942e-05
2.2415e-05
1.29032e-05
1.6038e-05
1.82634e-05
1.65684e-05
1.44325e-05
8.11856e-06
1.85316e-05
1.46889e-05
8.65308e-06
9.99891e-06
1.39413e-05
9.36329e-06
1.01723e-05
2.45548e-05
2.41196e-05
8.57498e-06
1.98428e-05
9.51563e-06
1.23274e-05
2.15484e-05
1.24886e-05
1.08724e-05
1.23574e-05
1.11544e-05
1.70968e-05
1.11745e-05
1.42968e-05
1.52427e-05
9.17471e-06
8.5354e-06
1.39676e-05
1.25728e-05
2.17289e-05
1.81339e-05
7.77693e-06
1.18889e-05
1.19058e-05
9.19033e-06
1.95772e-05
2.07769e-05
9.57546e-06
1.65836e-05
1.00367e-05
8.04962e-06
7.98982e-06
9.99926e-06
7.96265e-06
1.55761e-05
1.58489e-05
2.22668e-05
8.83358e-06
1.09843e-05
1.212e-05
1.53333e-05
1.81389e-05
9.34509e-06
9.65904e-06
1.42078e-05
1.07742e-05
1.07035e-05
1.50542e-05
1.23721e-05
8.61948e-06
1.14588e-05
1.46114e-05
1.34858e-05
1.31626e-05
1.35076e-05
1.90514e-05
1.21514e-05
1.15857e-05
1.47405e-05
1.72193e-05
8.69207e-06
1.685e-05
1.4508e-05
2.31614e-05
9.95302e-06
2.00541e-05
1.61747e-05
9.84136e-06
1.78276e-05
2.23433e-05
2.08863e-05
1.05723e-05
1.4737e-05
1.89397e-05
1.22929e-05
1.69142e-05
1.21648e-05
1.33357e-05
1.05736e-05
1.31118e-05
9.0636e-06
8.34244e-06
1.36903e-05
1.55226e-05
7.95608e-06
1.59883e-05
1.24178e-05
1.43719e-05
8.34772e-06
2.80666e-05
1.16506e-05
1.644e-05
1.41466e-05
1.68855e-05
2.21533e-05
1.40406e-05
1.03008e-05
9.94156e-06
1.86852e-05
1.1272e-05
1.36909e-05
7.69502e-06
1.15112e-05
1.86991e-05
1.8889e-05
1.53864e-05
1.35385e-05
2.00721e-05
1.64738e-05
8.1986e-06
9.01817e-06
1.15944e-05
2.1986e-05
9.59369e-06
1.12114e-05
1.24838e-05
1.18046e-05
1.76267e-05
1.50979e-05
1.14681e-05
1.86204e-05
1.00174e-05
8.10316e-06
1.66736e-05
1.11277e-05
2.58023e-05
1.20091e-05
1.78399e-05
1.13513e-05
1.57069e-05
1.46281e-05
2.40975e-05
9.85592e-06
1.39024e-05
1.39243e-05
1.63949e-05
1.49033e-05
1.95479e-05
1.51674e-05
1.38001e-05
9.62951e-06
8.10328e-06
2.03437e-05
2.1809e-05
2.10541e-05
1.65717e-05
1.69488e-05
1.48549e-05
3.01476e-05
2.14696e-05
1.25387e-05
9.99486e-06
1.57001e-05
9.23393e-06
1.22635e-05
1.50068e-05
2.24613e-05
1.35933e-05
1.4662e-05
1.18016e-05
1.34616e-05
1.42721e-05
1.45121e-05
1.71598e-05
1.40586e-05
2.30344e-05
8.17243e-06
8.97778e-06
1.87894e-05
2.14235e-05
1.35659e-05
1.14743e-05
2.30125e-05
1.26654e-05
1.63707e-05
1.27886e-05
1.30935e-05
2.03149e-05
1.4385e-05
9.70631e-06
1.69964e-05
1.40674e-05
1.72543e-05
1.71376e-05
1.3686e-05
8.17747e-06
1.83505e-05
1.6631e-05
2.92136e-05
9.52415e-06
1.42877e-05
1.47898e-05
8.57253e-06
1.85534e-05
2.33884e-05
1.19719e-05
9.48203e-06
1.06043e-05
7.69723e-06
9.72561e-06
7.94083e-06
1.19763e-05
1.32905e-05
1.16352e-05
8.95471e-06
1.14399e-05
1.48222e-05
1.42045e-05
1.28027e-05
1.27464e-05
9.7394e-06
1.29652e-05
1.56469e-05
1.24709e-05
1.51916e-05
9.47836e-06
1.47556e-05
1.32589e-05
1.13814e-05
1.02666e-05
1.79625e-05
2.24903e-05
1.10926e-05
9.17916e-06
1.25459e-05
1.15932e-05
1.20257e-05
1.36708e-05
1.2928e-05
1.48004e-05
1.50206e-05
1.06958e-05
1.04764e-05
1.29584e-05
8.40928e-06
1.32494e-05
1.21859e-05
1.20981e-05
8.65594e-06
8.85804e-06
1.19828e-05
8.86129e-06
1.53615e-05
1.24215e-05
8.7994e-06
9.79756e-06
1.46738e-05
1.02142e-05
8.65062e-06
1.19172e-05
2.21468e-05
1.72024e-05
2.22888e-05
1.11772e-05
9.67644e-06
1.27259e-05
1.37265e-05
1.57746e-05
1.17175e-05
1.57736e-05
1.40462e-05
1.44205e-05
1.75492e-05
1.22054e-05
1.21773e-05
1.50806e-05
8.93153e-06
3.20077e-05
1.06969e-05
1.64388e-05
1.0774e-05
1.53471e-05
2.08456e-05
8.38422e-06
1.21657e-05
1.99415e-05
1.87298e-05
8.85323e-06
1.1234e-05
1.29624e-05
1.92954e-05
1.6132e-05
2.17215e-05
2.07493e-05
1.53412e-05
7.77279e-06
1.34714e-05
1.98377e-05
1.23456e-05
1.13483e-05
7.74668e-06
9.54923e-06
1.21374e-05
1.03572e-05
9.04719e-06
1.38479e-05
8.49875e-06
1.15072e-05
9.0748e-06
1.66464e-05
3.01144e-05
2.16841e-05
1.84751e-05
1.13976e-05
1.18194e-05
2.34729e-05
3.57358e-05
9.00058e-06
1.56986e-05
7.74242e-06
1.39818e-05
7.83993e-06
2.08098e-05
1.73423e-05
1.14833e-05
1.04585e-05
7.9839e-06
8.32262e-06
1.74565e-05
1.3747e-05
1.03428e-05
1.52863e-05
1.78677e-05
1.42351e-05
1.74131e-05
1.09342e-05
2.21455e-05
8.28768e-06
1.23858e-05
1.47899e-05
1.17146e-05
8.76237e-06
7.9111e-06
9.59013e-06
1.03866e-05
9.50908e-06
1.20817e-05
8.08663e-06
1.03044e-05
1.5526e-05
1.65235e-05
1.73329e-05
8.6364e-06
1.38472e-05
1.26803e-05
9.30667e-06
1.71426e-05
1.19247e-05
1.1926e-05
1.21331e-05
1.05598e-05
1.40203e-05
9.0302e-06
1.87496e-05
1.18156e-05
1.19191e-05
1.27355e-05
1.05347e-05
1.09994e-05
2.08989e-05
2.98439e-05
1.4262e-05
1.4272e-05
1.12146e-05
1.4951e-05
1.20289e-05
2.40259e-05
1.28001e-05
1.42389e-05
1.51115e-05
1.91695e-05
2.46927e-05
1.85157e-05
9.76152e-06
1.05013e-05
7.94359e-06
8.93664e-06
1.37012e-05
1.08379e-05
1.64015e-05
1.46556e-05
9.51541e-06
1.24198e-05
8.55414e-06
1.14859e-05
2.29272e-05
1.63128e-05
1.06544e-05
1.63351e-05
1.53066e-05
1.41484e-05
1.39908e-05
8.58416e-06
1.11478e-05
1.16259e-05
9.78508e-06
9.05021e-06
1.60043e-05
9.45602e-06
9.19585e-06
1.22706e-05
1.20091e-05
1.13789e-05
2.2181e-05
1.40704e-05
1.08063e-05
1.78435e-05
1.29135e-05
2.46677e-05
1.32098e-05
1.99361e-05
8.26575e-06
9.49913e-06
1.6899e-05
1.73907e-05
1.35716e-05
1.65461e-05
1.87904e-05
8.57107e-06
1.96242e-05
1.29168e-05
2.17376e-05
9.5121e-06
1.3947e-05
1.70275e-05
1.01425e-05
1.36521e-05
2.77361e-05
1.53341e-05
1.5644e-05
1.30347e-05
1.11123e-05
1.42783e-05
1.45422e-05
8.49118e-06
8.59132e-06
1.39281e-05
1.13173e-05
1.10456e-05
1.09531e-05
1.34307e-05
1.03382e-05
1.74549e-05
1.0574e-05
1.07161e-05
8.05638e-06
1.09706e-05
1.3304e-05
1.05046e-05
1.34275e-05
1.15361e-05
1.19414e-05
1.26263e-05
8.89606e-06
8.09428e-06
1.88116e-05
3.21482e-05
1.94387e-05
1.54924e-05
1.74728e-05
2.15471e-05
1.19982e-05
1.00583e-05
1.11465e-05
9.87646e-06
1.91342e-05
1.50279e-05
1.45281e-05
8.29967e-06
1.23494e-05
1.00669e-05
1.00089e-05
8.85092e-06
9.19429e-06
1.01652e-05
1.04261e-05
8.26204e-06
1.27556e-05
1.98884e-05
2.11898e-05
9.46198e-06
1.78858e-05
1.54187e-05
1.37735e-05
1.35747e-05
8.88768e-06
1.33476e-05
8.73456e-06
2.00702e-05
1.53974e-05
1.95459e-05
1.37018e-05
9.74577e-06
1.3847e-05
1.3811e-05
2.16035e-05
1.38847e-05
9.53e-06
8.62277e-06
1.06371e-05
8.27783e-06
1.37319e-05
1.30236e-05
8.50455e-06
2.21502e-05
9.5363e-06
1.2507e-05
1.68806e-05
1.02175e-05
1.12406e-05
9.42667e-06
1.7167e-05
7.84314e-06
1.5928e-05
1.07753e-05
1.51451e-05
2.41811e-05
2.69076e-05
1.62257e-05
1.39074e-05
1.07091e-05
1.09872e-05
8.14781e-06
1.26316e-05
8.96924e-06
1.51524e-05
1.5766e-05
1.36478e-05
1.00353e-05
7.83699e-06
1.34941e-05
9.35442e-06
1.62162e-05
2.69626e-05
1.30961e-05
1.09011e-05
9.82911e-06
8.2622e-06
1.16893e-05
1.26272e-05
8.8573e-06
1.43964e-05
1.66164e-05
9.19256e-06
1.73096e-05
1.90524e-05
1.36983e-05
1.02834e-05
1.62027e-05
8.18147e-06
1.10935e-05
1.29519e-05
1.37547e-05
1.00816e-05
1.61598e-05
8.12167e-06
1.20512e-05
1.45988e-05
1.2722e-05