/*--------------------------------*- C++ -*----------------------------------*\
| =========                 |                                                 |
| \\      /  F ield         | OpenFOAM: The Open Source CFD Toolbox           |
|  \\    /   O peration     | Version:  1.7.0                                 |
|   \\  /    A nd           | Web:      www.OpenFOAM.com                      |
|    \\/     M anipulation  |                                                 |
\*---------------------------------------------------------------------------*/
FoamFile
{
    version     2.0;
    format      ascii;
    class       scalarField;
    location    "0.252/lagrangian/defaultCloud";
    object      m;
}
// * * * * * * * * * * * * * * * * * * * * * * * * * * * * * * * * * * * * * //


24703
(
6.20154e-13
6.22099e-13
6.17891e-13
6.25462e-13
6.27877e-13
6.28571e-13
6.27266e-13
6.29621e-13
6.31801e-13
6.31255e-13
6.25345e-13
6.33066e-13
6.30334e-13
6.30017e-13
6.33228e-13
6.30071e-13
6.25898e-13
6.317e-13
6.31027e-13
6.31167e-13
6.24513e-13
6.3319e-13
6.23137e-13
6.34218e-13
6.2783e-13
6.33698e-13
6.34657e-13
6.21462e-13
6.35127e-13
6.33502e-13
6.2997e-13
6.32559e-13
6.33879e-13
6.33242e-13
6.28301e-13
6.30404e-13
6.2665e-13
6.21589e-13
6.35098e-13
5.00033e-13
5.50361e-13
5.4414e-13
5.64244e-13
5.36048e-13
5.77112e-13
5.32697e-13
5.14777e-13
5.6696e-13
6.19961e-13
4.94235e-13
5.27503e-13
5.26655e-13
4.6767e-13
5.44323e-13
5.55809e-13
5.88669e-13
5.35751e-13
4.9946e-13
5.43576e-13
5.35142e-13
5.71061e-13
5.83897e-13
5.37459e-13
5.41543e-13
4.65848e-13
5.72186e-13
5.88367e-13
4.89773e-13
5.53385e-13
5.74311e-13
5.72993e-13
5.86983e-13
5.62157e-13
5.61895e-13
5.19141e-13
5.952e-13
5.66844e-13
5.88339e-13
5.86832e-13
5.52419e-13
5.82296e-13
5.27987e-13
5.23199e-13
5.49839e-13
5.67045e-13
5.94723e-13
5.78838e-13
5.76239e-13
5.56311e-13
5.38901e-13
5.70255e-13
5.04724e-13
5.90295e-13
5.53366e-13
5.9354e-13
5.5211e-13
5.57641e-13
5.96358e-13
5.19979e-13
5.17763e-13
6.0378e-13
4.97246e-13
6.00249e-13
5.91402e-13
5.98711e-13
5.01799e-13
5.84578e-13
5.3114e-13
6.06304e-13
5.06522e-13
5.10139e-13
5.59038e-13
5.13152e-13
5.35795e-13
5.11016e-13
5.77285e-13
5.10581e-13
5.70379e-13
5.77748e-13
5.64657e-13
5.84738e-13
5.34356e-13
5.78991e-13
5.20253e-13
5.1955e-13
5.58825e-13
6.02623e-13
5.69123e-13
5.30282e-13
6.03754e-13
5.40099e-13
5.09428e-13
6.09492e-13
5.41726e-13
5.00809e-13
5.34675e-13
5.75913e-13
5.23056e-13
5.69651e-13
5.63726e-13
5.25245e-13
5.35269e-13
5.47111e-13
5.90453e-13
5.44394e-13
5.79413e-13
5.19e-13
5.33061e-13
5.59246e-13
5.04969e-13
5.28652e-13
5.63874e-13
5.12858e-13
5.58474e-13
5.056e-13
5.79474e-13
5.77751e-13
5.91621e-13
5.75098e-13
5.7279e-13
5.85942e-13
5.40564e-13
5.76184e-13
5.56426e-13
5.60077e-13
5.50607e-13
5.79348e-13
5.51445e-13
5.45136e-13
5.61274e-13
5.94854e-13
5.61186e-13
5.61782e-13
5.40665e-13
5.63248e-13
5.72163e-13
5.26507e-13
5.27802e-13
5.81709e-13
5.86286e-13
5.82989e-13
5.72166e-13
5.73916e-13
5.89456e-13
5.47021e-13
5.52111e-13
5.40117e-13
6.03395e-13
4.63418e-13
5.9979e-13
5.8744e-13
5.48157e-13
5.38982e-13
5.50049e-13
5.55359e-13
5.4717e-13
5.15379e-13
6.0192e-13
5.82174e-13
5.37134e-13
6.01357e-13
5.88094e-13
5.49601e-13
5.82217e-13
5.44356e-13
5.35487e-13
6.0055e-13
5.32566e-13
5.45892e-13
6.02083e-13
5.32633e-13
5.90372e-13
5.53287e-13
6.07932e-13
5.26334e-13
5.09493e-13
5.46729e-13
5.669e-13
5.72953e-13
5.56442e-13
6.00671e-13
5.71783e-13
6.18365e-13
5.85546e-13
5.13685e-13
5.882e-13
5.81192e-13
5.1798e-13
5.75495e-13
5.55427e-13
5.20732e-13
5.68822e-13
5.47387e-13
5.71929e-13
6.01483e-13
5.90579e-13
4.99704e-13
5.5576e-13
5.48076e-13
5.45324e-13
5.13876e-13
6.08671e-13
5.97652e-13
5.3304e-13
5.72389e-13
6.05991e-13
5.9539e-13
5.21527e-13
5.58388e-13
5.88662e-13
5.6056e-13
5.96517e-13
5.95007e-13
5.93293e-13
5.71858e-13
5.70296e-13
6.25209e-13
6.13221e-13
5.96899e-13
5.82988e-13
5.38496e-13
5.88116e-13
5.8985e-13
4.89565e-13
6.03673e-13
5.72356e-13
4.96579e-13
5.23492e-13
5.8412e-13
5.69661e-13
5.77031e-13
6.01686e-13
5.83587e-13
5.56112e-13
5.70614e-13
5.8616e-13
5.47765e-13
5.66693e-13
5.67419e-13
6.08651e-13
5.42563e-13
5.37045e-13
5.38896e-13
4.93776e-13
5.97859e-13
5.44904e-13
5.86258e-13
5.69936e-13
5.79063e-13
6.10424e-13
5.59157e-13
5.1761e-13
5.80873e-13
5.73837e-13
5.82402e-13
5.70062e-13
5.78424e-13
6.05996e-13
5.26955e-13
5.85643e-13
5.82229e-13
5.86694e-13
5.91191e-13
6.02834e-13
5.58905e-13
5.91304e-13
5.26021e-13
5.80867e-13
5.98715e-13
5.63482e-13
5.32499e-13
5.67331e-13
5.28317e-13
5.08159e-13
6.10529e-13
5.05534e-13
5.86089e-13
5.61145e-13
6.01242e-13
5.88032e-13
5.4628e-13
5.11161e-13
5.85119e-13
5.99326e-13
6.12615e-13
5.90123e-13
5.39598e-13
5.75737e-13
5.59845e-13
5.55667e-13
5.01045e-13
6.02866e-13
5.78624e-13
5.78327e-13
5.78615e-13
5.99322e-13
5.95367e-13
5.98216e-13
5.75345e-13
5.54401e-13
6.12513e-13
5.16446e-13
5.59272e-13
5.64249e-13
5.34594e-13
5.5873e-13
5.35009e-13
6.10839e-13
5.41984e-13
5.62763e-13
5.7225e-13
5.93532e-13
5.24511e-13
5.65107e-13
5.6266e-13
5.86394e-13
5.11542e-13
5.19547e-13
5.90276e-13
6.11263e-13
5.45966e-13
5.1479e-13
5.66398e-13
5.45776e-13
6.00123e-13
6.18543e-13
5.90793e-13
5.43903e-13
6.09049e-13
5.58108e-13
5.97506e-13
5.44252e-13
6.05528e-13
5.98873e-13
5.79587e-13
5.5176e-13
6.04736e-13
5.15745e-13
5.67435e-13
5.65557e-13
5.78626e-13
5.44184e-13
6.03522e-13
5.76176e-13
5.72168e-13
5.8514e-13
5.9004e-13
5.67467e-13
5.29937e-13
5.86702e-13
5.81795e-13
6.12237e-13
5.58187e-13
6.14186e-13
5.61807e-13
5.93823e-13
5.78093e-13
5.95881e-13
5.51386e-13
5.98903e-13
5.64486e-13
5.90984e-13
5.35577e-13
6.13636e-13
5.66869e-13
5.98926e-13
5.81436e-13
5.34954e-13
5.71918e-13
5.68486e-13
6.11834e-13
5.63766e-13
6.03669e-13
5.3906e-13
6.06461e-13
5.64555e-13
5.71865e-13
6.06044e-13
5.77868e-13
5.12346e-13
5.44209e-13
5.9285e-13
5.92081e-13
5.12581e-13
5.56057e-13
5.59297e-13
6.003e-13
5.69103e-13
5.38182e-13
5.46992e-13
5.84879e-13
5.71581e-13
5.88525e-13
6.04599e-13
5.56355e-13
5.76172e-13
6.05994e-13
6.2194e-13
5.72896e-13
5.6712e-13
5.34998e-13
5.78379e-13
5.82322e-13
5.58345e-13
5.69752e-13
5.613e-13
5.45534e-13
5.72571e-13
6.22128e-13
5.34884e-13
5.86587e-13
5.61114e-13
5.74499e-13
5.85592e-13
6.02168e-13
5.88452e-13
5.86946e-13
6.19424e-13
5.80588e-13
5.35999e-13
5.85636e-13
5.117e-13
5.50286e-13
6.02859e-13
6.03345e-13
5.94764e-13
5.30037e-13
5.78674e-13
5.83732e-13
5.66272e-13
6.04772e-13
6.02064e-13
5.82556e-13
5.6821e-13
5.60724e-13
5.27279e-13
6.02641e-13
5.4201e-13
5.82838e-13
5.66874e-13
5.35642e-13
5.94135e-13
5.95872e-13
5.55225e-13
5.79205e-13
6.20163e-13
6.02783e-13
5.36974e-13
5.86126e-13
5.70106e-13
5.87031e-13
5.7535e-13
6.08491e-13
6.02863e-13
6.16832e-13
5.51105e-13
5.8057e-13
5.94885e-13
5.55126e-13
5.86774e-13
6.11411e-13
6.21897e-13
5.80161e-13
6.21542e-13
5.81153e-13
5.97974e-13
6.02668e-13
5.86167e-13
5.22384e-13
6.22686e-13
5.42826e-13
6.07065e-13
6.24378e-13
6.19497e-13
5.70204e-13
6.08004e-13
6.21756e-13
5.78114e-13
5.88218e-13
5.39798e-13
5.61108e-13
5.97248e-13
6.0008e-13
6.13024e-13
5.84478e-13
6.12751e-13
5.53387e-13
6.04261e-13
6.12035e-13
5.78533e-13
6.14717e-13
5.74888e-13
5.81972e-13
5.97866e-13
5.36225e-13
5.8562e-13
5.29468e-13
5.30964e-13
5.51887e-13
5.98455e-13
5.99474e-13
5.81618e-13
5.55385e-13
5.80184e-13
5.83342e-13
5.71718e-13
5.8236e-13
5.7303e-13
5.8213e-13
5.41935e-13
5.76955e-13
5.69109e-13
5.71803e-13
5.56479e-13
5.64878e-13
6.01847e-13
5.88772e-13
6.03722e-13
5.86126e-13
5.91922e-13
5.26224e-13
6.05008e-13
5.65247e-13
5.98515e-13
5.82622e-13
5.4441e-13
5.57287e-13
6.10343e-13
5.90784e-13
6.06878e-13
6.10201e-13
5.80986e-13
6.21742e-13
5.9132e-13
5.31897e-13
5.40255e-13
6.24561e-13
5.88764e-13
5.98154e-13
6.03814e-13
5.85324e-13
5.98685e-13
5.76377e-13
6.07063e-13
5.78762e-13
5.73567e-13
5.72795e-13
6.06999e-13
5.93723e-13
5.94338e-13
5.26949e-13
5.61075e-13
5.37993e-13
5.98886e-13
6.03426e-13
5.98926e-13
6.21653e-13
5.72443e-13
5.79496e-13
5.69327e-13
5.64772e-13
5.93714e-13
6.18907e-13
6.1666e-13
5.1726e-13
5.83712e-13
5.74668e-13
5.61649e-13
5.73778e-13
5.9257e-13
5.67436e-13
6.17464e-13
5.53612e-13
5.65502e-13
6.00276e-13
5.51372e-13
5.46244e-13
6.07054e-13
5.72273e-13
5.9663e-13
5.40169e-13
5.81732e-13
5.45542e-13
6.02019e-13
5.77299e-13
5.81168e-13
5.96839e-13
5.9419e-13
5.87408e-13
5.40926e-13
5.97101e-13
6.00897e-13
5.68497e-13
5.9848e-13
5.94157e-13
6.07754e-13
5.56915e-13
5.97853e-13
5.83379e-13
5.97886e-13
5.53743e-13
6.00718e-13
5.88637e-13
5.78942e-13
6.03674e-13
6.16031e-13
5.63344e-13
6.10037e-13
5.68755e-13
6.07924e-13
5.55588e-13
5.56623e-13
5.85389e-13
6.16954e-13
6.24146e-13
6.00675e-13
6.06495e-13
5.56322e-13
6.12107e-13
5.82588e-13
5.72722e-13
5.33591e-13
5.98141e-13
5.6291e-13
6.07891e-13
6.07545e-13
5.50415e-13
5.97921e-13
5.41958e-13
6.05249e-13
5.85098e-13
5.97489e-13
5.73898e-13
5.70853e-13
5.35247e-13
5.94015e-13
6.00766e-13
6.13505e-13
5.82955e-13
6.13987e-13
5.46126e-13
6.04308e-13
5.48374e-13
5.88555e-13
5.43362e-13
5.70217e-13
5.52992e-13
6.20875e-13
5.71665e-13
5.60327e-13
6.06261e-13
5.72948e-13
5.55749e-13
5.78446e-13
5.89501e-13
5.90652e-13
6.21084e-13
6.10115e-13
6.14418e-13
5.86926e-13
5.90577e-13
6.13686e-13
5.79512e-13
5.94241e-13
6.08853e-13
5.8664e-13
5.77977e-13
6.16027e-13
5.62233e-13
6.01823e-13
6.23107e-13
6.03019e-13
6.08307e-13
5.70371e-13
5.63614e-13
5.93338e-13
5.75899e-13
5.71791e-13
5.89941e-13
5.78142e-13
5.75235e-13
5.87118e-13
5.47924e-13
5.64246e-13
5.9305e-13
5.63223e-13
5.58097e-13
5.49567e-13
6.16054e-13
5.45781e-13
6.18472e-13
5.34212e-13
5.31916e-13
6.03303e-13
5.47722e-13
6.12591e-13
5.72265e-13
6.02008e-13
5.7326e-13
6.12044e-13
6.08211e-13
6.00895e-13
5.69343e-13
5.53201e-13
5.90199e-13
5.77538e-13
6.0049e-13
6.15054e-13
5.51182e-13
5.83563e-13
5.24368e-13
6.1555e-13
5.70343e-13
5.38476e-13
5.98555e-13
5.38698e-13
6.06753e-13
6.03008e-13
5.88645e-13
5.45779e-13
5.53159e-13
5.76184e-13
6.01208e-13
5.96799e-13
4.95793e-13
5.80199e-13
5.96236e-13
5.97205e-13
6.00122e-13
5.80546e-13
6.08545e-13
5.85712e-13
5.77116e-13
5.76025e-13
6.09392e-13
6.07153e-13
6.09178e-13
5.96823e-13
5.82858e-13
5.81121e-13
5.81716e-13
5.94425e-13
5.6727e-13
5.90749e-13
6.2508e-13
5.64485e-13
5.8205e-13
5.4939e-13
5.84632e-13
5.62184e-13
6.02056e-13
5.89981e-13
6.13907e-13
5.39905e-13
5.35906e-13
5.62048e-13
5.4579e-13
6.17301e-13
5.4618e-13
5.69506e-13
5.64415e-13
5.79377e-13
6.10582e-13
5.85694e-13
5.90611e-13
5.64734e-13
5.72866e-13
5.93406e-13
5.72965e-13
5.7091e-13
6.26012e-13
6.14745e-13
6.00781e-13
5.83048e-13
5.56819e-13
5.86396e-13
6.00424e-13
6.05764e-13
5.92274e-13
6.00529e-13
5.62457e-13
5.24242e-13
6.14092e-13
5.99364e-13
6.10619e-13
5.91116e-13
5.37001e-13
5.78387e-13
6.1903e-13
6.10472e-13
5.76345e-13
6.11604e-13
5.33101e-13
6.0734e-13
5.87594e-13
6.07947e-13
5.87742e-13
5.81724e-13
6.12544e-13
6.15197e-13
6.0714e-13
5.66109e-13
5.80738e-13
6.15795e-13
5.67339e-13
5.4842e-13
5.93467e-13
6.15934e-13
6.00831e-13
5.65436e-13
6.25703e-13
5.75042e-13
5.69016e-13
5.85378e-13
6.12738e-13
5.96015e-13
5.85272e-13
5.90362e-13
6.15938e-13
6.1253e-13
6.15551e-13
5.53135e-13
5.91746e-13
5.6629e-13
6.04466e-13
5.90567e-13
6.01995e-13
5.73674e-13
5.78228e-13
6.05463e-13
6.04272e-13
5.83531e-13
5.52211e-13
5.86426e-13
5.53799e-13
5.64155e-13
5.87938e-13
6.12288e-13
5.58452e-13
5.91422e-13
5.81262e-13
6.03265e-13
5.78794e-13
5.61283e-13
5.34481e-13
5.52652e-13
5.74998e-13
6.10473e-13
5.7916e-13
5.93067e-13
5.67569e-13
5.59351e-13
5.66024e-13
5.38622e-13
5.86518e-13
5.35839e-13
6.13242e-13
6.20217e-13
6.19704e-13
6.13429e-13
6.11895e-13
6.218e-13
5.99479e-13
5.92553e-13
5.8487e-13
6.15767e-13
6.0767e-13
6.20892e-13
5.92135e-13
5.85685e-13
5.83438e-13
5.79211e-13
5.93791e-13
6.0579e-13
5.23585e-13
5.83781e-13
5.85706e-13
6.15156e-13
5.73174e-13
6.16208e-13
6.13847e-13
6.1376e-13
6.00081e-13
5.6159e-13
6.24742e-13
5.96776e-13
5.71223e-13
5.68485e-13
5.87311e-13
5.54399e-13
5.61409e-13
5.9268e-13
5.93072e-13
6.13869e-13
6.24249e-13
6.12696e-13
5.48337e-13
5.97956e-13
5.83385e-13
6.02924e-13
5.76032e-13
6.10577e-13
5.90705e-13
5.99433e-13
5.58198e-13
6.1738e-13
5.76591e-13
5.83397e-13
6.01166e-13
6.20538e-13
5.52555e-13
5.38404e-13
6.07446e-13
6.00831e-13
5.54397e-13
5.87723e-13
5.53695e-13
5.94011e-13
5.58059e-13
5.59149e-13
5.60428e-13
5.62316e-13
5.7799e-13
6.00398e-13
5.37799e-13
5.24367e-13
5.97633e-13
5.8017e-13
6.08755e-13
6.07826e-13
5.98687e-13
6.19143e-13
5.85055e-13
6.1355e-13
5.736e-13
6.03308e-13
5.93787e-13
6.04583e-13
5.961e-13
6.14609e-13
6.0973e-13
6.12587e-13
5.84211e-13
6.17281e-13
6.00656e-13
6.04563e-13
6.16954e-13
5.72611e-13
6.21604e-13
6.03474e-13
6.11913e-13
5.87517e-13
5.87657e-13
6.10285e-13
5.78768e-13
5.86084e-13
5.80455e-13
6.15726e-13
5.66246e-13
6.154e-13
5.86874e-13
5.57847e-13
5.92617e-13
5.81833e-13
5.95516e-13
5.72379e-13
5.74271e-13
5.60833e-13
5.61962e-13
5.31624e-13
5.731e-13
5.7224e-13
6.21121e-13
5.64648e-13
5.92746e-13
5.78193e-13
5.84081e-13
5.65278e-13
6.1451e-13
5.75542e-13
5.74e-13
5.8886e-13
5.91166e-13
6.16812e-13
6.20275e-13
5.83929e-13
5.6034e-13
5.66792e-13
5.85838e-13
6.16328e-13
5.9752e-13
5.70152e-13
6.13533e-13
5.49373e-13
5.55752e-13
5.64362e-13
5.885e-13
5.75655e-13
6.06406e-13
6.25435e-13
5.6956e-13
6.21124e-13
5.85301e-13
5.78408e-13
5.73443e-13
6.01651e-13
5.50481e-13
5.7864e-13
5.61569e-13
5.84976e-13
6.25196e-13
5.97326e-13
5.95351e-13
5.44357e-13
6.13155e-13
6.22483e-13
6.16334e-13
6.17403e-13
6.11992e-13
5.87208e-13
5.95446e-13
5.74401e-13
5.89771e-13
5.94887e-13
5.95413e-13
6.0847e-13
5.60828e-13
5.508e-13
6.19617e-13
6.0383e-13
6.02669e-13
5.9859e-13
5.85071e-13
5.96087e-13
6.08328e-13
6.1462e-13
5.94133e-13
5.60527e-13
5.97314e-13
5.67767e-13
5.69795e-13
5.6183e-13
5.70082e-13
5.78105e-13
6.0331e-13
5.85691e-13
5.92968e-13
5.2665e-13
6.00425e-13
5.97955e-13
6.00619e-13
6.11081e-13
6.06621e-13
6.09566e-13
5.56926e-13
5.83323e-13
5.8588e-13
5.85738e-13
5.97992e-13
5.72961e-13
6.13856e-13
5.68786e-13
5.68695e-13
5.91964e-13
5.38659e-13
5.57179e-13
5.84661e-13
5.59966e-13
6.13829e-13
5.91338e-13
6.0333e-13
5.79653e-13
5.81732e-13
6.04993e-13
5.51628e-13
6.00132e-13
5.60454e-13
5.73075e-13
6.03133e-13
5.94254e-13
6.1635e-13
5.8979e-13
6.13067e-13
6.00594e-13
6.15468e-13
6.23049e-13
5.99832e-13
6.13479e-13
5.92598e-13
5.42998e-13
5.96729e-13
5.90364e-13
5.90105e-13
5.42885e-13
6.19139e-13
5.49015e-13
5.58318e-13
5.543e-13
6.20106e-13
5.65709e-13
5.83348e-13
6.05628e-13
6.19106e-13
5.90797e-13
5.83365e-13
6.09221e-13
6.09419e-13
5.68469e-13
6.25752e-13
6.09743e-13
6.25357e-13
6.05261e-13
5.55577e-13
6.07831e-13
5.7192e-13
5.93061e-13
5.50893e-13
5.57981e-13
5.79958e-13
6.10248e-13
6.25015e-13
5.98838e-13
5.79292e-13
5.9168e-13
5.76345e-13
5.92246e-13
5.3817e-13
5.8172e-13
6.00005e-13
6.20305e-13
6.20275e-13
5.84784e-13
5.94004e-13
5.68249e-13
5.753e-13
5.9216e-13
6.1211e-13
6.12861e-13
5.85903e-13
5.70928e-13
5.57986e-13
5.855e-13
6.06076e-13
5.46928e-13
6.02589e-13
5.84185e-13
5.98731e-13
6.08772e-13
5.77941e-13
5.98485e-13
6.0843e-13
6.16792e-13
5.94488e-13
5.42304e-13
5.82889e-13
5.93835e-13
5.93378e-13
5.67895e-13
6.20359e-13
5.76394e-13
5.84651e-13
5.55242e-13
5.95656e-13
6.26306e-13
6.01152e-13
6.19507e-13
5.91239e-13
6.21522e-13
6.04059e-13
6.01868e-13
5.70628e-13
5.57752e-13
5.97787e-13
5.54174e-13
5.9809e-13
6.20816e-13
5.81832e-13
5.99135e-13
5.88544e-13
6.24954e-13
6.13931e-13
5.76592e-13
5.40504e-13
6.23317e-13
5.68175e-13
6.06269e-13
5.91937e-13
6.00354e-13
5.95061e-13
5.84086e-13
5.361e-13
6.03255e-13
6.11976e-13
6.28477e-13
5.98352e-13
6.05092e-13
5.78753e-13
6.0833e-13
6.03233e-13
6.21174e-13
5.40124e-13
6.04081e-13
5.75027e-13
5.66201e-13
5.90296e-13
6.2422e-13
6.01704e-13
5.9065e-13
5.72815e-13
6.27876e-13
5.95817e-13
5.91345e-13
5.84011e-13
5.64779e-13
6.09606e-13
6.2684e-13
5.62169e-13
5.99788e-13
5.78565e-13
6.00888e-13
5.76079e-13
5.74209e-13
5.96978e-13
6.00642e-13
5.97117e-13
5.3397e-13
5.91271e-13
5.40908e-13
6.00275e-13
5.67154e-13
5.31259e-13
5.87965e-13
6.08675e-13
6.05074e-13
5.62989e-13
6.14417e-13
6.02581e-13
6.05294e-13
6.02275e-13
6.07476e-13
5.78167e-13
5.92435e-13
6.20647e-13
5.76075e-13
6.04412e-13
6.0418e-13
5.83547e-13
5.95809e-13
6.20202e-13
5.98675e-13
5.63713e-13
5.86238e-13
5.70973e-13
6.16722e-13
6.03413e-13
5.96974e-13
6.10155e-13
6.063e-13
6.15592e-13
6.13137e-13
6.02459e-13
5.84626e-13
6.17211e-13
5.92974e-13
5.80013e-13
5.38748e-13
6.19977e-13
6.15988e-13
5.64158e-13
5.70643e-13
5.47994e-13
6.10681e-13
5.96103e-13
6.13501e-13
5.9966e-13
5.49465e-13
5.88135e-13
5.76543e-13
6.20746e-13
5.89884e-13
6.11902e-13
5.7578e-13
5.68916e-13
5.77832e-13
6.20871e-13
5.95305e-13
6.16321e-13
5.66617e-13
5.91502e-13
6.02701e-13
6.07502e-13
6.05329e-13
6.1246e-13
5.92773e-13
5.8486e-13
6.12897e-13
6.15263e-13
5.81956e-13
5.9684e-13
5.51865e-13
5.54596e-13
5.27498e-13
6.03482e-13
6.10269e-13
5.63003e-13
6.22042e-13
5.59058e-13
5.76426e-13
6.09251e-13
5.79391e-13
5.80015e-13
6.06772e-13
5.92204e-13
5.75953e-13
6.31335e-13
6.08545e-13
5.66855e-13
5.45214e-13
5.80608e-13
6.00722e-13
5.7782e-13
6.09874e-13
5.86581e-13
6.00852e-13
5.59939e-13
5.93029e-13
5.43003e-13
5.67485e-13
5.69528e-13
6.25805e-13
6.16944e-13
6.02674e-13
5.84022e-13
5.58893e-13
6.01134e-13
6.0358e-13
5.82805e-13
6.18343e-13
6.05857e-13
5.97385e-13
5.64857e-13
5.96034e-13
5.92384e-13
6.09799e-13
6.03595e-13
6.09962e-13
6.25521e-13
6.14892e-13
6.1953e-13
6.11961e-13
6.09147e-13
5.82051e-13
5.9855e-13
6.05502e-13
5.98893e-13
5.97506e-13
6.14258e-13
5.84257e-13
5.95488e-13
5.97557e-13
6.09338e-13
5.67867e-13
6.19996e-13
5.77127e-13
5.86848e-13
5.51621e-13
5.82135e-13
5.7836e-13
5.92067e-13
6.17244e-13
5.63186e-13
6.06035e-13
5.69299e-13
6.08516e-13
6.22654e-13
5.64114e-13
5.98734e-13
5.85801e-13
6.00067e-13
6.08763e-13
6.11489e-13
5.90334e-13
6.03895e-13
5.31977e-13
6.07575e-13
6.22955e-13
6.14036e-13
6.09955e-13
6.15916e-13
6.15704e-13
6.03524e-13
6.05901e-13
5.96643e-13
5.74921e-13
5.88537e-13
5.87201e-13
5.58392e-13
5.83953e-13
6.07796e-13
5.59981e-13
5.88562e-13
5.78823e-13
5.69595e-13
6.20312e-13
6.02291e-13
5.99334e-13
5.80005e-13
6.19676e-13
6.10643e-13
5.98169e-13
5.91346e-13
5.53093e-13
5.76754e-13
6.19606e-13
5.96253e-13
5.93663e-13
6.25916e-13
6.20743e-13
6.05051e-13
6.16879e-13
5.89652e-13
6.05309e-13
6.17857e-13
5.70736e-13
6.00547e-13
6.04774e-13
5.8347e-13
5.92703e-13
6.05352e-13
5.93589e-13
6.15151e-13
5.55831e-13
5.96679e-13
5.88694e-13
5.9365e-13
6.06061e-13
6.15437e-13
5.87903e-13
6.19454e-13
6.09321e-13
6.1844e-13
5.70392e-13
5.36095e-13
6.18777e-13
4.97675e-13
6.00401e-13
5.83495e-13
5.75789e-13
5.59538e-13
5.66322e-13
5.72849e-13
5.95671e-13
5.61177e-13
5.68796e-13
5.80776e-13
5.73337e-13
5.73838e-13
5.9828e-13
5.57518e-13
6.13142e-13
5.77986e-13
5.66114e-13
5.77873e-13
5.80394e-13
5.78103e-13
5.92196e-13
5.46282e-13
5.88651e-13
5.78971e-13
6.12271e-13
5.79688e-13
6.04947e-13
6.06109e-13
5.81439e-13
5.92399e-13
6.06475e-13
6.00205e-13
6.13761e-13
6.07548e-13
6.16697e-13
6.01722e-13
6.00594e-13
6.02293e-13
6.10294e-13
5.73546e-13
6.10688e-13
5.8473e-13
6.04569e-13
6.02998e-13
6.17413e-13
5.9506e-13
5.77935e-13
5.73451e-13
6.16983e-13
5.8088e-13
6.1143e-13
5.98837e-13
5.72376e-13
6.1311e-13
5.91086e-13
5.9987e-13
6.12353e-13
5.85631e-13
5.97673e-13
5.91568e-13
6.21661e-13
6.033e-13
5.95654e-13
6.22863e-13
6.09741e-13
6.04269e-13
5.99677e-13
5.88815e-13
6.12516e-13
6.11548e-13
5.64539e-13
5.72316e-13
5.27956e-13
6.00118e-13
6.09635e-13
5.99411e-13
5.85594e-13
6.17382e-13
6.03243e-13
5.73362e-13
5.96238e-13
6.05286e-13
6.03548e-13
5.97352e-13
5.68543e-13
6.01488e-13
5.34474e-13
5.49963e-13
5.92101e-13
6.14838e-13
5.84049e-13
6.02681e-13
6.02134e-13
5.88794e-13
5.99228e-13
6.17892e-13
6.13236e-13
5.89007e-13
6.10326e-13
6.21859e-13
6.08509e-13
6.18748e-13
6.09066e-13
5.71717e-13
6.07591e-13
5.79255e-13
6.07274e-13
5.94073e-13
5.84335e-13
5.64137e-13
5.82382e-13
6.04746e-13
5.78589e-13
5.77128e-13
6.19513e-13
6.10457e-13
5.75485e-13
6.21106e-13
5.90237e-13
6.2264e-13
5.92022e-13
6.04037e-13
6.18273e-13
6.24106e-13
6.07923e-13
6.08295e-13
6.116e-13
6.24706e-13
5.8979e-13
6.25151e-13
5.75541e-13
5.69431e-13
5.76216e-13
6.12173e-13
6.1896e-13
5.34255e-13
5.59937e-13
6.18527e-13
6.21919e-13
5.9739e-13
6.03408e-13
5.96228e-13
6.02021e-13
5.45703e-13
6.1194e-13
6.23948e-13
5.84526e-13
6.01835e-13
5.87605e-13
5.96389e-13
5.8483e-13
6.0697e-13
5.6934e-13
5.85684e-13
6.22319e-13
5.95523e-13
6.15657e-13
6.00211e-13
5.77609e-13
5.80715e-13
5.66435e-13
6.03241e-13
5.86041e-13
5.36458e-13
6.01338e-13
6.00492e-13
6.28018e-13
6.17199e-13
5.82897e-13
6.20499e-13
6.00684e-13
6.12448e-13
5.94756e-13
6.00362e-13
5.94009e-13
5.57202e-13
5.95453e-13
5.93776e-13
5.47248e-13
6.00473e-13
5.64471e-13
5.75059e-13
5.8373e-13
6.09485e-13
5.67225e-13
5.865e-13
5.98048e-13
5.74022e-13
6.05409e-13
6.0002e-13
6.1614e-13
6.17694e-13
5.52023e-13
6.08863e-13
5.81808e-13
5.89281e-13
5.79479e-13
6.23107e-13
5.91758e-13
6.05214e-13
5.59802e-13
5.93558e-13
5.91162e-13
6.15221e-13
6.03728e-13
6.15777e-13
6.11988e-13
6.05632e-13
6.09189e-13
6.07709e-13
6.0198e-13
5.82036e-13
5.46677e-13
6.18661e-13
5.85799e-13
5.97253e-13
6.05906e-13
6.19236e-13
5.80245e-13
6.0962e-13
5.50793e-13
5.66173e-13
6.08156e-13
5.8033e-13
5.77595e-13
5.82583e-13
6.00973e-13
6.11582e-13
6.18217e-13
5.82318e-13
6.22703e-13
6.06244e-13
5.90284e-13
6.15109e-13
6.14161e-13
5.86045e-13
5.85526e-13
5.84123e-13
6.15617e-13
5.79594e-13
6.03193e-13
6.14596e-13
5.83651e-13
5.96522e-13
6.21154e-13
5.79385e-13
5.83334e-13
6.13669e-13
6.21537e-13
6.2168e-13
6.12127e-13
5.83226e-13
5.56434e-13
5.82894e-13
6.18676e-13
6.12025e-13
5.8054e-13
5.76651e-13
6.16453e-13
6.10428e-13
6.02096e-13
5.98321e-13
6.24642e-13
6.10355e-13
6.03231e-13
5.87135e-13
6.07955e-13
6.07064e-13
5.83746e-13
6.17173e-13
6.21198e-13
5.84238e-13
6.15991e-13
6.25113e-13
5.87905e-13
5.79802e-13
6.05874e-13
6.11885e-13
6.15571e-13
6.0256e-13
6.16938e-13
5.85333e-13
5.90069e-13
5.85209e-13
5.56315e-13
5.62989e-13
5.45866e-13
5.88234e-13
6.13131e-13
6.07242e-13
6.14613e-13
5.60959e-13
6.20889e-13
6.22252e-13
5.8786e-13
6.18029e-13
6.15373e-13
5.7647e-13
6.14538e-13
5.88165e-13
5.7313e-13
6.04111e-13
6.13775e-13
6.18241e-13
5.91986e-13
6.16506e-13
6.0749e-13
5.87036e-13
6.00091e-13
5.92072e-13
6.22698e-13
6.02402e-13
6.02853e-13
5.89932e-13
5.86292e-13
6.15625e-13
6.23079e-13
6.17137e-13
5.92085e-13
5.27925e-13
5.95412e-13
6.21261e-13
5.82467e-13
5.88791e-13
5.74945e-13
5.91316e-13
6.01247e-13
5.69009e-13
5.9229e-13
5.66213e-13
5.97069e-13
5.93172e-13
6.06065e-13
6.0747e-13
5.54735e-13
6.14258e-13
6.03954e-13
6.13666e-13
5.83291e-13
6.02021e-13
5.8453e-13
5.67456e-13
5.94637e-13
5.8558e-13
6.18363e-13
6.06974e-13
6.00647e-13
5.75065e-13
5.87224e-13
6.24101e-13
5.84904e-13
5.45067e-13
5.89194e-13
6.22007e-13
6.24587e-13
6.24079e-13
6.00354e-13
6.21171e-13
6.0854e-13
5.72615e-13
5.72142e-13
5.77088e-13
5.62109e-13
6.14206e-13
5.71659e-13
5.89249e-13
6.08493e-13
5.79502e-13
5.9172e-13
6.11723e-13
5.85891e-13
6.08268e-13
5.56874e-13
6.24685e-13
6.20365e-13
6.13974e-13
6.06903e-13
6.12331e-13
6.27904e-13
6.02223e-13
6.10389e-13
6.24461e-13
5.52921e-13
5.79756e-13
5.47811e-13
5.65926e-13
6.09232e-13
6.10352e-13
5.72222e-13
5.6644e-13
5.62991e-13
6.03723e-13
5.68445e-13
6.17367e-13
5.81381e-13
6.22568e-13
6.09708e-13
6.06631e-13
6.15281e-13
6.1097e-13
6.09289e-13
5.57392e-13
6.12234e-13
6.01643e-13
5.6019e-13
5.80586e-13
6.01426e-13
5.45724e-13
5.67599e-13
6.21659e-13
6.24793e-13
5.38801e-13
6.14483e-13
5.67889e-13
5.95498e-13
6.19713e-13
5.97448e-13
5.9574e-13
6.04071e-13
5.7889e-13
6.10218e-13
5.89946e-13
6.1413e-13
6.00126e-13
5.67512e-13
5.64988e-13
6.0466e-13
5.88291e-13
6.15396e-13
6.12356e-13
5.07817e-13
5.80664e-13
5.88284e-13
5.71249e-13
6.19172e-13
6.1763e-13
5.86519e-13
6.12612e-13
5.69058e-13
5.53861e-13
5.13819e-13
5.60326e-13
5.58009e-13
6.05688e-13
6.13111e-13
6.18606e-13
5.78038e-13
5.86304e-13
5.99081e-13
6.07847e-13
6.16928e-13
5.83382e-13
5.74654e-13
5.97353e-13
5.80011e-13
5.93977e-13
6.16831e-13
6.00701e-13
5.65342e-13
5.93019e-13
6.11401e-13
6.07955e-13
6.0084e-13
6.02432e-13
6.17944e-13
6.02314e-13
6.00183e-13
6.16603e-13
6.16109e-13
5.79459e-13
6.04861e-13
6.06797e-13
6.21885e-13
5.70924e-13
6.17508e-13
5.99055e-13
5.80169e-13
6.16061e-13
6.20434e-13
6.19308e-13
5.73217e-13
5.99135e-13
6.13991e-13
5.96735e-13
6.13415e-13
6.03579e-13
6.10004e-13
5.74962e-13
6.05233e-13
5.55076e-13
5.68186e-13
6.07701e-13
6.12263e-13
5.48096e-13
6.12364e-13
5.98971e-13
6.05877e-13
5.52625e-13
6.27145e-13
5.97837e-13
6.05929e-13
6.08464e-13
6.0202e-13
6.2385e-13
6.06916e-13
5.66891e-13
5.79039e-13
6.10572e-13
5.98959e-13
6.01486e-13
5.20858e-13
5.87692e-13
6.19218e-13
6.20629e-13
6.09302e-13
6.00925e-13
6.10415e-13
6.11049e-13
5.3394e-13
5.84644e-13
5.99746e-13
6.20167e-13
5.67431e-13
5.83529e-13
5.93731e-13
6.05415e-13
6.15824e-13
6.09824e-13
5.98211e-13
6.15768e-13
5.81672e-13
5.48979e-13
6.10899e-13
5.89768e-13
6.25963e-13
6.00433e-13
6.15954e-13
5.92556e-13
6.13968e-13
6.09812e-13
6.26828e-13
5.7532e-13
6.04611e-13
6.11894e-13
6.11752e-13
6.06225e-13
6.17759e-13
6.08429e-13
5.95639e-13
5.86572e-13
5.55891e-13
6.1983e-13
6.24317e-13
6.22694e-13
6.14535e-13
6.1759e-13
6.11312e-13
6.25569e-13
6.20986e-13
5.9044e-13
5.5884e-13
6.15843e-13
5.59854e-13
5.98002e-13
6.03158e-13
6.21334e-13
6.0324e-13
6.02255e-13
5.94424e-13
6.03998e-13
6.06174e-13
6.12361e-13
6.13134e-13
6.06572e-13
6.20565e-13
5.63265e-13
5.66513e-13
6.13835e-13
6.16516e-13
6.0118e-13
5.89754e-13
6.19798e-13
6.09348e-13
6.07107e-13
5.98411e-13
5.95341e-13
6.19034e-13
6.02306e-13
5.89971e-13
6.1411e-13
5.96808e-13
6.16738e-13
6.12946e-13
5.9993e-13
5.64721e-13
6.12677e-13
6.14858e-13
6.28567e-13
5.74061e-13
6.01162e-13
6.11247e-13
5.84311e-13
6.12894e-13
6.22407e-13
5.81364e-13
5.73441e-13
5.88791e-13
5.55147e-13
5.85291e-13
5.6807e-13
5.86178e-13
6.08678e-13
5.99227e-13
5.78215e-13
5.94119e-13
6.13115e-13
5.93374e-13
5.96748e-13
6.09723e-13
5.70412e-13
5.99037e-13
6.09997e-13
6.05392e-13
6.13427e-13
5.91378e-13
5.99802e-13
5.95899e-13
5.82687e-13
5.66445e-13
6.10621e-13
6.2058e-13
6.03609e-13
5.71112e-13
5.87477e-13
5.74714e-13
5.97057e-13
5.9727e-13
5.97264e-13
6.02773e-13
6.15373e-13
5.79672e-13
5.89132e-13
6.03676e-13
5.72415e-13
6.1021e-13
5.97371e-13
5.9507e-13
5.92808e-13
5.7272e-13
5.98589e-13
5.67495e-13
6.06941e-13
5.95981e-13
5.55229e-13
5.88943e-13
6.13816e-13
5.89194e-13
5.52801e-13
5.85047e-13
6.19102e-13
6.12923e-13
6.24461e-13
5.91086e-13
5.90289e-13
5.94753e-13
6.0696e-13
6.14186e-13
6.04559e-13
6.08798e-13
6.00251e-13
6.06528e-13
6.04009e-13
5.90972e-13
6.07235e-13
6.04018e-13
5.82711e-13
6.26842e-13
5.91894e-13
6.10853e-13
5.77882e-13
6.1752e-13
6.17852e-13
5.65274e-13
6.01007e-13
6.21174e-13
6.16006e-13
5.73742e-13
5.92667e-13
5.99829e-13
6.21655e-13
6.12357e-13
6.23714e-13
6.22076e-13
6.08328e-13
5.59025e-13
6.05704e-13
6.18005e-13
6.03616e-13
5.82962e-13
5.0219e-13
5.80783e-13
5.84267e-13
5.86785e-13
5.77481e-13
6.06055e-13
5.71996e-13
5.97852e-13
5.67943e-13
6.08843e-13
6.27815e-13
6.16414e-13
6.17928e-13
5.99654e-13
5.95205e-13
6.21991e-13
6.30528e-13
5.64893e-13
6.11135e-13
5.58764e-13
6.04554e-13
5.70405e-13
6.17489e-13
6.12388e-13
5.87623e-13
5.85199e-13
5.66904e-13
5.46676e-13
6.13816e-13
6.04878e-13
5.79459e-13
6.08284e-13
6.1359e-13
6.12266e-13
6.1698e-13
5.94918e-13
6.23273e-13
5.41499e-13
5.95675e-13
6.04056e-13
5.989e-13
5.67239e-13
5.32512e-13
5.71278e-13
5.88208e-13
5.76773e-13
5.82575e-13
5.62877e-13
5.84227e-13
6.03148e-13
6.14138e-13
6.07841e-13
5.65002e-13
6.09757e-13
6.03301e-13
5.76163e-13
6.17453e-13
5.98285e-13
5.9901e-13
5.98718e-13
5.95038e-13
6.04187e-13
5.81458e-13
6.15591e-13
5.89431e-13
5.99034e-13
5.96944e-13
6.00082e-13
5.7635e-13
6.22509e-13
6.29158e-13
6.0976e-13
6.08088e-13
5.8607e-13
6.11611e-13
5.97036e-13
6.25878e-13
5.96651e-13
6.0671e-13
6.05169e-13
6.12479e-13
6.24198e-13
6.19875e-13
5.92096e-13
5.97006e-13
5.36003e-13
5.8272e-13
6.09618e-13
6.03684e-13
6.17949e-13
6.13413e-13
5.86552e-13
5.99061e-13
5.67213e-13
5.99802e-13
6.24494e-13
6.18146e-13
5.91902e-13
6.11659e-13
6.0659e-13
6.05634e-13
6.04556e-13
5.76794e-13
5.90374e-13
5.9108e-13
5.71395e-13
5.65749e-13
6.11612e-13
5.62987e-13
5.62435e-13
6.01414e-13
6.06169e-13
5.89376e-13
6.22734e-13
6.12979e-13
5.88435e-13
6.20547e-13
6.04697e-13
6.24337e-13
6.08137e-13
6.22136e-13
5.6684e-13
5.83002e-13
6.09734e-13
6.18026e-13
5.96229e-13
6.13882e-13
6.19346e-13
5.46966e-13
6.18224e-13
6.07089e-13
6.22626e-13
5.66918e-13
6.12872e-13
6.17606e-13
5.89141e-13
6.07395e-13
6.25432e-13
6.10787e-13
6.11271e-13
6.11988e-13
5.86415e-13
6.08963e-13
6.10271e-13
5.66813e-13
5.63876e-13
6.07663e-13
5.90792e-13
6.01551e-13
5.822e-13
5.95372e-13
5.8471e-13
6.1283e-13
5.97692e-13
5.88335e-13
5.53573e-13
5.91529e-13
5.94549e-13
5.69207e-13
6.03199e-13
5.97062e-13
5.99703e-13
5.88417e-13
5.78855e-13
5.8206e-13
6.20873e-13
6.2898e-13
6.21734e-13
6.05399e-13
6.16599e-13
6.20053e-13
6.01251e-13
5.61349e-13
5.75886e-13
5.89344e-13
6.1513e-13
6.10276e-13
6.08271e-13
5.6851e-13
5.88633e-13
5.88198e-13
5.79453e-13
5.90154e-13
5.75162e-13
5.9095e-13
5.93331e-13
5.67382e-13
6.07837e-13
6.17366e-13
6.1974e-13
5.93019e-13
6.17144e-13
6.11022e-13
6.01656e-13
5.97575e-13
5.79598e-13
6.07328e-13
5.76433e-13
6.19273e-13
6.13031e-13
6.19777e-13
5.91351e-13
5.89402e-13
6.13331e-13
5.98438e-13
6.24793e-13
6.01526e-13
5.81469e-13
5.6676e-13
5.98517e-13
5.62552e-13
6.02261e-13
6.07682e-13
5.50804e-13
6.21859e-13
5.88913e-13
6.04021e-13
6.18117e-13
5.98769e-13
5.87279e-13
5.54628e-13
6.16204e-13
5.4154e-13
6.1671e-13
5.86971e-13
6.01523e-13
6.23727e-13
6.27344e-13
6.13342e-13
6.07501e-13
6.06382e-13
5.924e-13
5.54066e-13
5.867e-13
5.92746e-13
6.0737e-13
6.1123e-13
6.09296e-13
5.92634e-13
5.62719e-13
6.02588e-13
5.57367e-13
6.1128e-13
6.23586e-13
6.06556e-13
5.84112e-13
5.8789e-13
5.48041e-13
6.0056e-13
5.99435e-13
5.74354e-13
6.14855e-13
6.13059e-13
5.9219e-13
6.1971e-13
6.16191e-13
6.05481e-13
5.9323e-13
6.17624e-13
5.57084e-13
6.01057e-13
6.03719e-13
6.1193e-13
5.81098e-13
6.06736e-13
5.73105e-13
6.0951e-13
6.03152e-13
6.08877e-13
6.11677e-13
5.83236e-13
6.13516e-13
6.06668e-13