/*--------------------------------*- C++ -*----------------------------------*\
| =========                 |                                                 |
| \\      /  F ield         | OpenFOAM: The Open Source CFD Toolbox           |
|  \\    /   O peration     | Version:  1.7.0                                 |
|   \\  /    A nd           | Web:      www.OpenFOAM.com                      |
|    \\/     M anipulation  |                                                 |
\*---------------------------------------------------------------------------*/
FoamFile
{
    version     2.0;
    format      ascii;
    class       vectorField;
    location    "0.252/lagrangian/defaultCloud";
    object      n;
}
// * * * * * * * * * * * * * * * * * * * * * * * * * * * * * * * * * * * * * //


24703
(
(0 1 -3.69237e-07)
(0 1 -1.58211e-06)
(0 1 -9.95884e-07)
(0 1 4.40246e-09)
(0 1 4.87623e-07)
(0 1 3.34472e-07)
(0 1 3.31583e-07)
(0 1 5.27147e-07)
(0 1 1.47997e-08)
(0 1 -1.72716e-06)
(0 1 -1.74522e-07)
(0 1 3.72968e-07)
(0 1 7.30789e-07)
(0 1 -2.13755e-07)
(0 1 -3.48282e-07)
(0 1 3.43829e-07)
(0 1 -5.79081e-08)
(0 1 -3.09552e-06)
(0 1 3.98391e-07)
(0 1 -1.50562e-06)
(0 1 -2.50782e-07)
(0 1 -2.11469e-07)
(0 1 6.08242e-08)
(0 1 3.73526e-06)
(0 1 1.90405e-08)
(0 1 -2.20935e-07)
(0 1 2.64274e-07)
(0 1 -9.67424e-08)
(0 1 -1.07828e-09)
(0 1 2.25772e-06)
(0 1 2.67939e-07)
(0 1 -2.01793e-06)
(0 1 2.52439e-07)
(0 1 6.49257e-06)
(0 1 1.56964e-07)
(0 1 -5.62485e-07)
(0 1 -4.31775e-08)
(0 1 -1.2071e-09)
(0 1 1.2585e-06)
(0 1 5.10846e-08)
(0 1 1.48532e-08)
(0 1 -2.10085e-09)
(0 1 -3.68458e-18)
(0 1 -3.02524e-18)
(0 1 9.55404e-07)
(0 1 1.28536e-07)
(0 1 -4.51703e-10)
(0 1 3.17892e-07)
(0 1 -7.69345e-09)
(0 1 1.64919e-07)
(0 1 5.9691e-07)
(0 1 -4.1842e-06)
(0 1 4.62542e-07)
(0 1 -4.92877e-07)
(0 1 -4.90772e-18)
(0 1 7.69875e-07)
(0 1 -4.54806e-18)
(0 1 -6.16651e-07)
(0 1 1.31606e-06)
(0 1 1.06184e-08)
(0 1 2.53912e-07)
(0 1 -3.69897e-18)
(0 1 -4.77519e-07)
(0 1 -5.96334e-07)
(0 1 2.15454e-07)
(0 1 1.04608e-06)
(0 1 1.18932e-05)
(0 1 -3.04835e-07)
(0 1 -2.14649e-18)
(0 1 -4.28142e-18)
(0 1 -1.68724e-06)
(0 1 2.77489e-08)
(0 1 8.30521e-07)
(0 1 -9.77225e-07)
(0 1 2.06564e-09)
(0 1 -3.23738e-18)
(0 1 6.91364e-06)
(0 1 -2.63342e-18)
(0 1 -5.61095e-18)
(0 1 -2.44326e-06)
(0 1 -6.04419e-06)
(0 1 -7.76841e-07)
(0 1 -1.10403e-07)
(0 1 -3.91608e-07)
(0 1 1.53785e-18)
(0 1 -9.31282e-06)
(0 1 -4.26213e-08)
(0 1 3.00107e-05)
(0 1 2.08617e-08)
(0 1 3.47652e-07)
(0 1 8.26715e-09)
(0 1 -1.43768e-06)
(0 1 2.79616e-08)
(0 1 -2.49878e-18)
(0 1 3.5258e-18)
(0 1 -9.27324e-07)
(0 1 0.000170455)
(0 1 -2.18781e-18)
(0 1 -2.39344e-18)
(0 1 3.9527e-07)
(0 1 -1.11572e-06)
(0 1 1.50389e-06)
(0 1 -2.71077e-07)
(0 1 6.13501e-19)
(0 1 -6.06783e-07)
(0 1 -4.57087e-08)
(0 1 5.13666e-06)
(0 1 -2.63182e-06)
(0 1 1.28398e-07)
(0 1 -4.4266e-08)
(0 1 2.60849e-06)
(0 1 -4.60786e-18)
(0 1 -1.69345e-07)
(0 1 3.37803e-06)
(0 1 -1.97102e-06)
(0 1 -1.01397e-06)
(0 1 -4.03606e-06)
(0 1 2.33899e-07)
(0 1 2.00878e-06)
(0 1 -2.55179e-18)
(0 1 -3.76118e-08)
(0 1 1.16439e-18)
(0 1 -1.34979e-05)
(0 1 -9.32599e-07)
(0 1 0)
(0 1 -8.993e-07)
(0 1 6.1119e-07)
(0 1 6.0922e-09)
(0 1 -3.45248e-18)
(0 1 -2.04195e-18)
(0 1 -5.88671e-09)
(0 1 -3.18625e-07)
(0 1 -1.95166e-07)
(0 1 -3.29645e-18)
(0 1 5.11605e-07)
(0 1 -2.7732e-06)
(0 1 -1.4717e-07)
(0 1 -5.98409e-08)
(0 1 -6.29531e-07)
(0 1 8.5336e-06)
(0 1 -9.43264e-08)
(0 1 7.04874e-07)
(0 1 3.27904e-08)
(0 1 3.36042e-09)
(0 1 1.37624e-06)
(0 1 2.3906e-05)
(0 1 2.05714e-07)
(0 1 3.21987e-09)
(0 1 -1.73539e-06)
(0 1 2.88281e-07)
(0 1 4.85219e-08)
(0 1 -4.52496e-18)
(0 1 -5.81237e-18)
(0 1 -9.23171e-07)
(0 1 -4.13578e-07)
(0 1 -0.000307468)
(0 1 -3.253e-18)
(0 1 1.26106e-06)
(0 1 2.11463e-06)
(0 1 -2.1634e-07)
(0 1 -1.25736e-18)
(0 1 -6.59465e-18)
(0 1 -4.79686e-18)
(0 1 0)
(0 1 -3.69669e-18)
(0 1 -1.1242e-18)
(0 1 -2.72506e-06)
(0 1 0)
(0 1 0)
(0 1 -5.48337e-18)
(0 1 -3.69376e-18)
(0 1 1.73376e-07)
(0 1 -4.74823e-18)
(0 1 -1.10327e-06)
(0 1 -2.34815e-06)
(0 1 -1.96059e-18)
(0 1 0.000102808)
(0 1 -2.48909e-07)
(0 1 9.24069e-08)
(0 1 -2.5097e-07)
(0 1 -6.31345e-18)
(0 1 0)
(0 1 -1.25696e-18)
(0 1 2.27951e-08)
(0 1 -2.53164e-06)
(0 1 -6.38604e-18)
(0 1 5.43489e-08)
(0 1 -5.1745e-18)
(0 1 1.82645e-09)
(0 1 7.26229e-06)
(0 1 -4.79201e-18)
(0 1 3.98499e-07)
(0 1 -1.28266e-08)
(0 1 -9.98215e-08)
(0 1 -2.80015e-18)
(0 1 1.30354e-06)
(0 1 -3.73834e-06)
(0 1 -4.44049e-18)
(0 1 4.96165e-07)
(0 1 6.86264e-07)
(0 1 3.61152e-06)
(0 1 -5.81264e-08)
(0 1 1.02675e-07)
(0 1 5.37698e-07)
(0 1 -4.11612e-18)
(0 1 9.90959e-09)
(0 1 -1.0603e-05)
(0 1 -1.82897e-18)
(0 1 -1.76489e-18)
(0 1 -3.09613e-07)
(0 1 -4.64632e-06)
(0 1 1.68952e-07)
(0 1 6.17514e-07)
(0 1 -4.06839e-06)
(0 1 7.27699e-07)
(0 1 4.42112e-06)
(0 1 -1.3872e-07)
(0 1 -6.88352e-07)
(0 1 -3.78019e-18)
(0 1 -4.13117e-18)
(0 1 1.37038e-06)
(0 1 -1.96123e-08)
(0 1 -1.26025e-07)
(0 1 -7.88897e-06)
(0 1 0)
(0 1 -3.89205e-18)
(0 1 -2.29746e-08)
(0 1 -6.93642e-18)
(0 1 1.04457e-05)
(0 1 -6.07294e-07)
(0 1 2.8522e-08)
(0 1 3.65273e-05)
(0 1 1.88855e-06)
(0 1 -5.09564e-07)
(0 1 5.74647e-07)
(0 1 -1.62511e-05)
(0 1 2.89835e-07)
(0 1 1.76038e-06)
(0 1 -7.2706e-07)
(0 1 -2.2228e-18)
(0 1 -3.68844e-07)
(0 1 8.09113e-08)
(0 1 -5.13174e-07)
(0 1 -4.07361e-07)
(0 1 8.72607e-07)
(0 1 -2.92647e-06)
(0 1 -4.53596e-18)
(0 1 -5.53702e-07)
(0 1 -2.64739e-06)
(0 1 -1.69282e-18)
(0 1 1.01693e-06)
(0 1 -3.11703e-18)
(0 1 -2.65e-05)
(0 1 -2.24219e-05)
(0 1 -4.87465e-19)
(0 1 -4.05885e-08)
(0 1 -4.43689e-07)
(0 1 1.24256e-05)
(0 1 -7.16317e-07)
(0 1 -4.17875e-18)
(0 1 -1.98609e-18)
(0 1 3.82218e-07)
(0 1 3.79921e-05)
(0 1 -1.88435e-07)
(0 1 -9.11327e-07)
(0 1 -4.29139e-06)
(0 1 4.3294e-05)
(0 1 2.88649e-07)
(0 1 -1.27571e-06)
(0 1 -2.4322e-08)
(0 1 2.54345e-07)
(0 1 1.62254e-06)
(0 1 -5.70705e-08)
(0 1 4.11913e-09)
(0 1 -1.09838e-07)
(0 1 5.44921e-07)
(0 1 -5.84973e-09)
(0 1 3.04703e-08)
(0 1 2.57598e-08)
(0 1 -2.56262e-08)
(0 1 1.5973e-05)
(0 1 -7.0547e-08)
(0 1 1.74977e-07)
(0 1 -3.50221e-06)
(0 1 1.79188e-06)
(0 1 7.91391e-06)
(0 1 -1.30989e-08)
(0 1 -9.05428e-08)
(0 1 -5.82253e-07)
(0 1 -1.19638e-06)
(0 1 -4.58881e-08)
(0 1 3.53129e-06)
(0 1 -3.03853e-07)
(0 1 -2.37027e-18)
(0 1 -4.22868e-18)
(0 1 1.88918e-07)
(0 1 -1.8059e-06)
(0 1 1.27279e-18)
(0 1 9.43321e-11)
(0 1 -1.45252e-07)
(0 1 -1.04886e-06)
(0 1 0)
(0 1 -2.92874e-08)
(0 1 1.35457e-06)
(0 1 -4.12037e-18)
(0 1 -1.62679e-18)
(0 1 -1.75975e-07)
(0 1 -4.43517e-18)
(0 1 8.86151e-07)
(0 1 4.59329e-08)
(0 1 -3.68893e-18)
(0 1 4.25365e-08)
(0 1 1.17714e-07)
(0 1 4.23231e-06)
(0 1 -1.89616e-18)
(0 1 2.03036e-06)
(0 1 1.15711e-06)
(0 1 4.65671e-07)
(0 1 5.50746e-07)
(0 1 -4.13251e-18)
(0 1 2.38969e-06)
(0 1 -2.04023e-07)
(0 1 0)
(0 1 9.5274e-07)
(0 1 -1.68679e-06)
(0 1 8.61667e-08)
(0 1 -1.87119e-07)
(0 1 -9.12325e-18)
(0 1 2.89631e-06)
(0 1 -3.62253e-18)
(0 1 -7.30176e-09)
(0 1 -6.61798e-07)
(0 1 4.55215e-07)
(0 1 5.67824e-07)
(0 1 -6.87684e-08)
(0 1 1.03758e-18)
(0 1 5.3169e-06)
(0 1 -8.01779e-09)
(0 1 2.19033e-06)
(0 1 2.53646e-07)
(0 1 7.18293e-07)
(0 1 -4.56739e-18)
(0 1 7.58516e-19)
(0 1 2.35789e-06)
(0 1 -1.79161e-09)
(0 1 4.28626e-07)
(0 1 1.63762e-06)
(0 1 7.16269e-08)
(0 1 8.13503e-06)
(0 1 -3.01674e-19)
(0 1 -4.67563e-18)
(0 1 2.68858e-09)
(0 1 -2.7148e-07)
(0 1 -7.07337e-08)
(0 1 5.40717e-06)
(0 1 -1.63427e-07)
(0 1 2.07466e-07)
(0 1 -1.19435e-06)
(0 1 -2.18892e-06)
(0 1 -8.23678e-07)
(0 1 1.42512e-06)
(0 1 -3.55871e-18)
(0 1 -1.72758e-06)
(0 1 0)
(0 1 -9.02819e-07)
(0 1 -2.53746e-07)
(0 1 -1.17711e-06)
(0 1 1.57501e-07)
(0 1 -5.96405e-19)
(0 1 1.08619e-07)
(0 1 -6.64568e-07)
(0 1 1.29231e-18)
(0 1 5.24575e-08)
(0 1 1.77457e-06)
(0 1 -1.27489e-06)
(0 1 -1.29615e-07)
(0 1 -3.96986e-07)
(0 1 -1.68836e-06)
(0 1 2.69691e-08)
(0 1 -1.35953e-06)
(0 1 7.74783e-06)
(0 1 2.1102e-07)
(0 1 -1.30038e-08)
(0 1 -3.74983e-06)
(0 1 6.63869e-06)
(0 1 -3.54366e-18)
(0 1 -2.35767e-06)
(0 1 4.75534e-05)
(0 1 -3.44854e-09)
(0 1 1.1428e-18)
(0 1 -3.30083e-07)
(0 1 -3.61333e-06)
(0 1 -5.96256e-18)
(0 1 5.73174e-08)
(0 1 9.60331e-08)
(0 1 1.85761e-06)
(0 1 -1.37642e-07)
(0 1 -3.04885e-18)
(0 1 -9.85694e-08)
(0 1 -1.08583e-18)
(0 1 1.68462e-06)
(0 1 1.45555e-07)
(0 1 1.47887e-08)
(0 1 -1.65503e-06)
(0 1 3.58275e-07)
(0 1 -1.49528e-18)
(0 1 -1.85325e-07)
(0 1 -2.58608e-06)
(0 1 -1.26074e-06)
(0 1 5.3356e-07)
(0 1 -2.69424e-19)
(0 1 -3.65378e-07)
(0 1 6.38959e-07)
(0 1 1.23129e-07)
(0 1 -4.54252e-08)
(0 1 -2.43534e-07)
(0 1 7.08099e-06)
(0 1 -2.79069e-18)
(0 1 -5.05526e-06)
(0 1 2.70707e-06)
(0 1 -4.1012e-18)
(0 1 6.76964e-07)
(0 1 7.33654e-108)
(0 1 7.07426e-07)
(0 1 7.16622e-07)
(0 1 -5.55313e-06)
(0 1 5.88427e-09)
(0 1 -6.88955e-07)
(0 1 -6.16e-18)
(0 1 9.52739e-09)
(0 1 -1.20307e-18)
(0 1 1.57676e-06)
(0 1 4.00463e-07)
(0 1 -2.89928e-08)
(0 1 -1.2938e-18)
(0 1 -0.000275651)
(0 1 3.09492e-05)
(0 1 -4.66369e-08)
(0 1 5.86082e-19)
(0 1 -4.24354e-18)
(0 1 3.03218e-06)
(0 1 4.97361e-07)
(0 1 8.36833e-07)
(0 1 -5.2651e-06)
(0 1 1.16437e-06)
(0 1 2.97967e-06)
(0 1 -3.53834e-18)
(0 1 -1.08496e-31)
(0 1 -6.65087e-09)
(0 1 -1.18515e-19)
(0 1 7.5128e-08)
(0 1 -9.16495e-08)
(0 1 -7.15499e-08)
(0 1 1.28559e-06)
(0 1 -4.38835e-20)
(0 1 -1.50487e-06)
(0 1 -3.00148e-07)
(0 1 6.6053e-134)
(0 1 -4.90005e-18)
(0 1 -2.50773e-18)
(0 1 -4.79347e-18)
(0 1 1.09823e-08)
(0 1 -1.89862e-18)
(0 1 5.03416e-07)
(0 1 1.44474e-06)
(0 1 -6.5296e-18)
(0 1 2.92365e-07)
(0 1 -5.8036e-07)
(0 1 -1.64777e-18)
(0 1 6.56681e-07)
(0 1 5.03135e-07)
(0 1 3.90529e-07)
(0 1 -2.65174e-18)
(0 1 7.4293e-07)
(0 1 -1.71251e-06)
(0 1 -4.85749e-08)
(0 1 1.48983e-08)
(0 1 2.26623e-07)
(0 1 3.88129e-07)
(0 1 8.64493e-07)
(0 1 -7.45815e-07)
(0 1 4.67491e-07)
(0 1 -1.10356e-08)
(0 1 1.0562e-08)
(0 1 0)
(0 1 -9.85043e-07)
(0 1 1.55174e-06)
(0 1 1.99377e-08)
(0 1 -1.9771e-07)
(0 1 -3.26309e-07)
(0 1 1.57179e-07)
(0 1 -2.6122e-06)
(0 1 -5.04244e-06)
(0 1 -6.41896e-06)
(0 1 5.08535e-08)
(0 1 -7.1491e-07)
(0 1 -2.72169e-07)
(0 1 -3.94118e-06)
(0 1 4.45931e-06)
(0 1 -3.52024e-06)
(0 1 -1.35592e-18)
(0 1 0)
(0 1 -4.98822e-07)
(0 1 0)
(0 1 1.94874e-06)
(0 1 1.71492e-06)
(0 1 -5.45162e-07)
(0 1 5.85592e-07)
(0 1 -8.65392e-07)
(0 1 5.151e-06)
(0 1 -1.9448e-06)
(0 1 5.40172e-07)
(0 1 -1.38394e-06)
(0 1 -2.3632e-18)
(0 1 -1.33426e-06)
(0 1 -2.82132e-18)
(0 1 -6.99074e-07)
(0 1 -4.2306e-06)
(0 1 1.09538e-07)
(0 1 -1.32643e-07)
(0 1 6.18493e-08)
(0 1 -9.71004e-07)
(0 1 4.6754e-07)
(0 1 7.12622e-07)
(0 1 2.9818e-06)
(0 1 3.21539e-07)
(0 1 -6.83184e-08)
(0 1 1.32398e-06)
(0 1 -4.24392e-07)
(0 1 -4.51299e-07)
(0 1 -4.41606e-05)
(0 1 4.96733e-07)
(0 1 2.94439e-06)
(0 1 -2.97736e-18)
(0 1 2.94858e-09)
(0 1 -1.02862e-06)
(0 1 -8.095e-08)
(0 1 -2.55373e-18)
(0 1 1.28764e-06)
(0 1 -3.1783e-07)
(0 1 1.1903e-18)
(0 1 6.75796e-06)
(0 1 -1.85926e-07)
(0 1 -7.05821e-09)
(0 1 -5.00086e-09)
(0 1 -7.5251e-07)
(0 1 -5.70227e-07)
(0 1 3.86292e-08)
(0 1 -4.63026e-18)
(0 1 -8.04897e-07)
(0 1 1.8553e-06)
(0 1 0)
(0 1 4.61893e-07)
(0 1 1.26975e-06)
(0 1 1.67718e-07)
(0 1 1.38553e-18)
(0 1 -1.54595e-05)
(0 1 2.08964e-07)
(0 1 -8.05479e-19)
(0 1 1.47298e-07)
(0 1 -7.73757e-07)
(0 1 -1.95898e-07)
(0 1 -3.15315e-18)
(0 1 0)
(0 1 -4.88609e-18)
(0 1 -5.04068e-18)
(0 1 -1.3165e-06)
(0 1 -1.14676e-06)
(0 1 -1.06373e-07)
(0 1 6.50083e-07)
(0 1 -1.86731e-06)
(0 1 -2.40935e-18)
(0 1 4.4903e-06)
(0 1 7.20904e-06)
(0 1 -6.79116e-07)
(0 1 -7.35388e-19)
(0 1 1.02263e-07)
(0 1 -4.11267e-18)
(0 1 -3.12211e-07)
(0 1 -4.17077e-18)
(0 1 -3.35965e-07)
(0 1 7.31071e-07)
(0 1 -3.20107e-06)
(0 1 7.23946e-06)
(0 1 1.0158e-18)
(0 1 -5.26974e-08)
(0 1 -2.49239e-06)
(0 1 0)
(0 1 -3.40202e-07)
(0 1 8.56862e-08)
(0 1 3.38082e-07)
(0 1 -3.31912e-08)
(0 1 8.2304e-08)
(0 1 6.32399e-07)
(0 1 -8.20908e-19)
(0 1 -1.22249e-18)
(0 1 1.52844e-08)
(0 1 -4.70133e-18)
(0 1 1.38506e-06)
(0 1 -3.31815e-06)
(0 1 -3.65889e-18)
(0 1 1.1956e-08)
(0 1 7.11429e-06)
(0 1 -9.99201e-07)
(0 1 -1.48619e-08)
(0 1 1.50335e-08)
(0 1 -3.02189e-18)
(0 1 -3.2126e-18)
(0 1 0)
(0 1 -8.155e-07)
(0 1 -7.28213e-07)
(0 1 -1.36748e-07)
(0 1 -7.53735e-09)
(0 1 -2.98104e-18)
(0 1 4.65473e-07)
(0 1 -4.91394e-06)
(0 1 1.11223e-18)
(0 1 -8.88576e-07)
(0 1 1.58837e-06)
(0 1 8.45408e-08)
(0 1 -4.69234e-07)
(0 1 -4.21806e-18)
(0 1 -1.73628e-18)
(0 1 1.78426e-08)
(0 1 -1.16022e-05)
(0 1 2.73224e-06)
(0 1 4.87712e-08)
(0 1 -8.84831e-07)
(0 1 -5.95825e-08)
(0 1 2.67653e-06)
(0 1 -1.8955e-08)
(0 1 -3.12045e-06)
(0 1 -5.4205e-08)
(0 1 6.84509e-07)
(0 1 9.16439e-08)
(0 1 0)
(0 1 8.52475e-19)
(0 1 -4.32493e-18)
(0 1 5.0845e-08)
(0 1 0)
(0 1 2.44259e-06)
(0 1 -9.57469e-07)
(0 1 -1.09936e-07)
(0 1 -1.52852e-06)
(0 1 -2.25079e-18)
(0 1 -4.84454e-07)
(0 1 -3.91101e-18)
(0 1 -2.86479e-07)
(0 1 -7.40422e-20)
(0 1 1.10687e-06)
(0 1 -1.89546e-07)
(0 1 -4.52889e-07)
(0 1 -6.89013e-07)
(0 1 1.21108e-06)
(0 1 -2.3456e-06)
(0 1 -3.70855e-07)
(0 1 -5.51441e-18)
(0 1 2.79105e-06)
(0 1 2.16294e-18)
(0 1 1.59212e-18)
(0 1 -3.28648e-18)
(0 1 2.94481e-06)
(0 1 -6.81237e-07)
(0 1 -9.32512e-18)
(0 1 -2.34004e-18)
(0 1 -1.1684e-07)
(0 1 -2.87783e-07)
(0 1 -1.85035e-08)
(0 1 -1.18622e-07)
(0 1 1.39073e-06)
(0 1 -6.15604e-08)
(0 1 -6.10163e-08)
(0 1 -4.45826e-06)
(0 1 -4.10359e-06)
(0 1 -9.18083e-08)
(0 1 -2.62135e-45)
(0 1 0)
(0 1 -1.09263e-08)
(0 1 0)
(0 1 -5.1463e-06)
(0 1 7.07783e-19)
(0 1 2.45525e-07)
(0 1 2.59689e-06)
(0 1 4.17109e-07)
(0 1 3.36857e-06)
(0 1 1.52267e-07)
(0 1 2.49745e-18)
(0 1 2.74681e-06)
(0 1 -1.39175e-08)
(0 1 -2.86025e-18)
(0 1 9.63296e-07)
(0 1 -2.70302e-07)
(0 1 -2.07122e-18)
(0 1 -5.04181e-18)
(0 1 -1.44309e-06)
(0 1 0)
(0 1 1.51486e-05)
(0 1 -1.34486e-19)
(0 1 -8.84413e-06)
(0 1 9.90362e-07)
(0 1 1.61938e-06)
(0 1 1.71743e-06)
(0 1 4.69459e-06)
(0 1 1.05787e-06)
(0 1 3.76149e-06)
(0 1 1.2738e-06)
(0 1 1.7597e-08)
(0 1 -7.05573e-08)
(0 1 -2.07911e-08)
(0 1 -7.27043e-18)
(0 1 -2.01871e-07)
(0 1 4.0485e-05)
(0 1 9.96512e-08)
(0 1 6.24563e-06)
(0 1 1.84158e-07)
(0 1 8.71758e-07)
(0 1 -2.46547e-18)
(0 1 8.11454e-08)
(0 1 7.02346e-09)
(0 1 -3.68133e-08)
(0 1 -1.06051e-06)
(0 1 0.000141554)
(0 1 -5.28626e-18)
(0 1 -4.05992e-18)
(0 1 -4.61302e-18)
(0 1 -1.33195e-06)
(0 1 -2.43049e-18)
(0 1 -1.78379e-08)
(0 1 -2.65634e-06)
(0 1 1.76108e-06)
(0 1 -2.73043e-18)
(0 1 -5.83602e-06)
(0 1 1.45655e-09)
(0 1 -1.92104e-08)
(0 1 2.56575e-06)
(0 1 -6.22202e-07)
(0 1 -3.41096e-06)
(0 1 3.68976e-05)
(0 1 -1.64032e-06)
(0 1 1.74443e-07)
(0 1 8.6095e-19)
(0 1 2.20992e-07)
(0 1 4.38979e-06)
(0 1 7.93513e-07)
(0 1 -5.84687e-18)
(0 1 -3.12096e-18)
(0 1 -4.18738e-18)
(0 1 -1.32105e-08)
(0 1 -9.97153e-09)
(0 1 -7.50941e-06)
(0 1 4.81076e-08)
(0 1 -1.59475e-07)
(0 1 -5.02926e-19)
(0 1 6.81955e-07)
(0 1 4.76884e-07)
(0 1 2.3504e-08)
(0 1 4.05582e-07)
(0 1 2.07778e-07)
(0 1 0)
(0 1 8.49993e-08)
(0 1 1.62647e-07)
(0 1 8.04292e-07)
(0 1 -1.98874e-07)
(0 1 -5.73013e-08)
(0 1 -5.16779e-07)
(0 1 -8.17858e-19)
(0 1 5.83863e-07)
(0 1 -5.7609e-07)
(0 1 -2.01748e-18)
(0 1 3.59212e-06)
(0 1 -4.01034e-07)
(0 1 -4.6302e-18)
(0 1 8.03436e-06)
(0 1 -3.02518e-07)
(0 1 -6.05076e-20)
(0 1 1.78958e-06)
(0 1 -3.86889e-07)
(0 1 7.81793e-08)
(0 1 4.47043e-08)
(0 1 -5.64713e-06)
(0 1 3.97415e-08)
(0 1 0)
(0 1 1.16711e-07)
(0 1 -1.02876e-07)
(0 1 1.91316e-06)
(0 1 -1.04748e-07)
(0 1 -4.68546e-07)
(0 1 -2.82847e-06)
(0 1 -1.30789e-08)
(0 1 7.5123e-07)
(0 1 1.02183e-08)
(0 1 0)
(0 1 1.20882e-05)
(0 1 -2.64488e-08)
(0 1 1.55488e-08)
(0 1 -4.9741e-09)
(0 1 7.80076e-06)
(0 1 -1.53985e-06)
(0 1 1.24768e-06)
(0 1 -2.49891e-06)
(0 1 -4.08938e-18)
(0 1 6.6963e-07)
(0 1 -2.79294e-07)
(0 1 -4.46458e-18)
(0 1 -3.32946e-18)
(0 1 2.60286e-06)
(0 1 8.44184e-07)
(0 1 2.92676e-18)
(0 1 -1.41351e-18)
(0 1 6.35152e-08)
(0 1 -5.12534e-06)
(0 1 -2.52616e-18)
(0 1 6.02345e-06)
(0 1 1.34421e-08)
(0 1 -6.71425e-18)
(0 1 1.59223e-07)
(0 1 0)
(0 1 5.95314e-08)
(0 1 -7.50486e-05)
(0 1 -6.09374e-07)
(0 1 2.65632e-06)
(0 1 -8.3173e-08)
(0 1 -3.9825e-07)
(0 1 -1.17231e-18)
(0 1 -9.4177e-08)
(0 1 5.76884e-06)
(0 1 -1.23311e-07)
(0 1 3.50702e-08)
(0 1 -1.51619e-06)
(0 1 1.18426e-06)
(0 1 2.03734e-08)
(0 1 -4.19231e-18)
(0 1 5.16565e-07)
(0 1 2.89895e-09)
(0 1 6.30147e-09)
(0 1 7.16139e-08)
(0 1 4.84076e-06)
(0 1 4.88202e-06)
(0 1 -5.53066e-10)
(0 1 -2.84574e-18)
(0 1 -2.05115e-18)
(0 1 2.24886e-07)
(0 1 -1.21649e-07)
(0 1 -5.13865e-07)
(0 1 1.1151e-06)
(0 1 5.29944e-08)
(0 1 1.30346e-06)
(0 1 2.48115e-06)
(0 1 2.27188e-07)
(0 1 -1.49732e-07)
(0 1 6.00894e-07)
(0 1 5.11981e-07)
(0 1 2.31785e-06)
(0 1 6.6499e-08)
(0 1 -1.78503e-06)
(0 1 -6.23498e-19)
(0 1 -1.02145e-07)
(0 1 1.82949e-06)
(0 1 1.52102e-18)
(0 1 -4.74428e-06)
(0 1 9.68708e-07)
(0 1 -5.23014e-09)
(0 1 -6.47818e-08)
(0 1 1.21224e-07)
(0 1 -2.82065e-06)
(0 1 -1.15634e-06)
(0 1 -2.1882e-07)
(0 1 6.74158e-07)
(0 1 -2.55559e-06)
(0 1 3.92487e-09)
(0 1 -8.66416e-09)
(0 1 -1.27505e-06)
(0 1 5.41609e-07)
(0 1 1.81572e-07)
(0 1 -1.43865e-18)
(0 1 -3.47756e-06)
(0 1 3.94091e-07)
(0 1 -1.06787e-07)
(0 1 3.09727e-07)
(0 1 0)
(0 1 -2.70773e-07)
(0 1 -5.35714e-09)
(0 1 2.06783e-06)
(0 1 -4.83731e-08)
(0 1 -6.03591e-08)
(0 1 1.9134e-19)
(0 1 1.59249e-06)
(0 1 1.77032e-07)
(0 1 -4.678e-06)
(0 1 -5.58501e-09)
(0 1 5.16067e-08)
(0 1 1.7971e-07)
(0 1 -5.22132e-06)
(0 1 -1.25625e-06)
(0 1 4.48656e-08)
(0 1 -4.61369e-18)
(0 1 -1.26323e-05)
(0 1 1.27531e-31)
(0 1 7.26176e-07)
(0 1 -1.03232e-07)
(0 1 1.34529e-07)
(0 1 -2.10723e-18)
(0 1 -9.45626e-09)
(0 1 7.36108e-08)
(0 1 1.23295e-06)
(0 1 1.22951e-18)
(0 1 0)
(0 1 9.81712e-07)
(0 1 -5.70478e-19)
(0 1 -2.36782e-07)
(0 1 -2.20331e-06)
(0 1 -5.41669e-18)
(0 1 -3.41345e-07)
(0 1 3.29892e-07)
(0 1 1.78541e-08)
(0 1 -2.82762e-07)
(0 1 -3.98166e-18)
(0 1 -4.57112e-19)
(0 1 1.80821e-07)
(0 1 -2.26642e-08)
(0 1 -5.67487e-07)
(0 1 2.87537e-07)
(0 1 -6.2803e-18)
(0 1 -4.23342e-07)
(0 1 5.85302e-19)
(0 1 4.37416e-07)
(0 1 -9.84044e-08)
(0 1 -5.79246e-07)
(0 1 0)
(0 1 3.69986e-07)
(0 1 6.31873e-06)
(0 1 -3.68998e-18)
(0 1 -8.01754e-07)
(0 1 -1.86336e-08)
(0 1 3.00576e-07)
(0 1 -1.18565e-07)
(0 1 5.29697e-07)
(0 1 4.57623e-07)
(0 1 -3.59704e-08)
(0 1 -4.21123e-06)
(0 1 -1.78991e-18)
(0 1 9.38585e-08)
(0 1 3.82619e-06)
(0 1 -4.70358e-07)
(0 1 0)
(0 1 1.21896e-05)
(0 1 -2.35696e-06)
(0 1 -1.98368e-18)
(0 1 9.62334e-07)
(0 1 -6.63527e-19)
(0 1 5.70204e-08)
(0 1 6.96252e-06)
(0 1 2.65279e-06)
(0 1 -1.42761e-06)
(0 1 -1.48614e-09)
(0 1 5.95526e-07)
(0 1 1.76872e-06)
(0 1 5.43713e-07)
(0 1 4.0558e-08)
(0 1 -6.13854e-18)
(0 1 -1.81967e-07)
(0 1 1.11569e-05)
(0 1 -7.59518e-07)
(0 1 0)
(0 1 5.63267e-07)
(0 1 1.37888e-18)
(0 1 -3.92807e-18)
(0 1 -1.37129e-06)
(0 1 -2.4087e-08)
(0 1 -8.82427e-18)
(0 1 -5.43692e-06)
(0 1 -1.12639e-08)
(0 1 -3.13038e-07)
(0 1 1.43599e-18)
(0 1 -1.74181e-07)
(0 1 1.99149e-06)
(0 1 -3.13678e-06)
(0 1 -2.82189e-08)
(0 1 -9.10558e-06)
(0 1 -1.40723e-06)
(0 1 7.85383e-20)
(0 1 8.31029e-07)
(0 1 5.80821e-07)
(0 1 -6.4928e-08)
(0 1 2.07244e-07)
(0 1 -2.05416e-08)
(0 1 6.65292e-07)
(0 1 -1.26426e-07)
(0 1 -1.61882e-08)
(0 1 0)
(0 1 -4.61968e-07)
(0 1 3.3695e-06)
(0 1 -5.25719e-08)
(0 1 5.82627e-07)
(0 1 -2.91799e-18)
(0 1 4.08409e-08)
(0 1 -1.70959e-06)
(0 1 -2.91286e-07)
(0 1 -2.73981e-06)
(0 1 -7.26518e-06)
(0 1 7.67757e-07)
(0 1 -1.53082e-07)
(0 1 -5.34751e-18)
(0 1 1.81893e-06)
(0 1 -7.83878e-08)
(0 1 2.09e-07)
(0 1 -1.46305e-18)
(0 1 1.04015e-06)
(0 1 -3.26915e-18)
(0 1 1.7203e-06)
(0 1 1.11044e-06)
(0 1 3.08516e-06)
(0 1 4.21449e-162)
(0 1 -2.56531e-07)
(0 1 0)
(0 1 -2.38566e-18)
(0 1 -1.22477e-18)
(0 1 5.29582e-08)
(0 1 -1.03036e-06)
(0 1 -1.37764e-06)
(0 1 0)
(0 1 -1.40833e-06)
(0 1 4.58636e-10)
(0 1 1.26176e-07)
(0 1 -7.12643e-07)
(0 1 -7.93763e-19)
(0 1 -8.97624e-19)
(0 1 -6.18691e-08)
(0 1 -7.7971e-07)
(0 1 1.84243e-07)
(0 1 4.14482e-19)
(0 1 -7.32863e-18)
(0 1 4.83281e-07)
(0 1 2.21258e-06)
(0 1 -2.92274e-18)
(0 1 -1.38823e-07)
(0 1 -1.06386e-06)
(0 1 1.51696e-06)
(0 1 3.05954e-06)
(0 1 -7.4372e-07)
(0 1 -1.34122e-07)
(0 1 9.6272e-07)
(0 1 1.22144e-06)
(0 1 1.91757e-09)
(0 1 -1.12895e-18)
(0 1 5.56635e-07)
(0 1 0)
(0 1 5.51632e-07)
(0 1 -7.43074e-07)
(0 1 -1.48433e-07)
(0 1 -5.14714e-07)
(0 1 2.5072e-05)
(0 1 -2.0229e-18)
(0 1 -7.54495e-07)
(0 1 2.24779e-06)
(0 1 -2.09807e-06)
(0 1 -8.31542e-19)
(0 1 0)
(0 1 1.13955e-06)
(0 1 -2.23335e-07)
(0 1 6.00061e-07)
(0 1 -1.67637e-07)
(0 1 -4.11434e-08)
(0 1 6.4601e-07)
(0 1 -7.41217e-09)
(0 1 -1.57085e-06)
(0 1 1.51636e-05)
(0 1 6.52649e-07)
(0 1 -2.00199e-07)
(0 1 -8.24361e-06)
(0 1 -1.00526e-06)
(0 1 1.2259e-07)
(0 1 -2.35374e-06)
(0 1 2.03707e-06)
(0 1 -2.60291e-18)
(0 1 1.49401e-06)
(0 1 1.71727e-06)
(0 1 2.7386e-06)
(0 1 -1.82792e-07)
(0 1 -5.50729e-18)
(0 1 -7.81453e-05)
(0 1 -2.80159e-06)
(0 1 -9.4366e-07)
(0 1 -7.03447e-07)
(0 1 3.56572e-06)
(0 1 -1.63077e-06)
(0 1 -2.75534e-18)
(0 1 2.56404e-07)
(0 1 -2.85165e-18)
(0 1 1.1894e-06)
(0 1 -3.43226e-58)
(0 1 -2.85483e-18)
(0 1 3.06496e-07)
(0 1 2.9405e-06)
(0 1 0)
(0 1 -5.01075e-07)
(0 1 -1.64485e-07)
(0 1 -2.52082e-07)
(0 1 0)
(0 1 -5.19492e-18)
(0 1 2.39858e-06)
(0 1 -2.01195e-07)
(0 1 -4.64792e-08)
(0 1 6.44278e-07)
(0 1 9.89131e-07)
(0 1 -8.48707e-07)
(0 1 -4.70316e-18)
(0 1 2.29834e-06)
(0 1 1.76478e-07)
(0 1 4.90153e-06)
(0 1 1.61424e-06)
(0 1 -1.08706e-19)
(0 1 4.89459e-08)
(0 1 1.47298e-06)
(0 1 1.30541e-06)
(0 1 1.16151e-07)
(0 1 -1.01005e-07)
(0 1 -2.07773e-06)
(0 1 -6.0851e-07)
(0 1 -1.51227e-06)
(0 1 1.86402e-07)
(0 1 -4.2917e-08)
(0 1 -9.30767e-07)
(0 1 -3.15487e-07)
(0 1 1.73071e-06)
(0 1 2.47851e-08)
(0 1 -2.7758e-18)
(0 1 1.0373e-06)
(0 1 -6.91491e-08)
(0 1 7.7179e-09)
(0 1 -4.79055e-18)
(0 1 -7.0581e-19)
(0 1 -2.10386e-06)
(0 1 6.26636e-07)
(0 1 -2.61514e-07)
(0 1 5.65355e-07)
(0 1 2.9553e-06)
(0 1 -7.13702e-07)
(0 1 -4.1061e-18)
(0 1 -1.21806e-06)
(0 1 7.60214e-07)
(0 1 -3.27865e-08)
(0 1 -4.21719e-07)
(0 1 0)
(0 1 -4.71167e-06)
(0 1 1.05465e-06)
(0 1 3.98382e-07)
(0 1 -2.88578e-07)
(0 1 -3.47305e-07)
(0 1 -1.65406e-07)
(0 1 3.19603e-07)
(0 1 -2.17171e-06)
(0 1 4.95642e-07)
(0 1 3.64779e-06)
(0 1 -3.57503e-18)
(0 1 -3.35386e-07)
(0 1 -1.8168e-07)
(0 1 2.86217e-07)
(0 1 -4.49162e-18)
(0 1 -7.78026e-20)
(0 1 7.10193e-08)
(0 1 0)
(0 1 -3.96747e-18)
(0 1 1.47021e-06)
(0 1 -2.74516e-06)
(0 1 8.41236e-08)
(0 1 -1.57347e-18)
(0 1 0)
(0 1 -1.67708e-18)
(0 1 -4.23375e-06)
(0 1 7.13705e-08)
(0 1 -4.22461e-18)
(0 1 -2.63483e-06)
(0 1 -2.61661e-18)
(0 1 -2.04404e-06)
(0 1 -3.77516e-07)
(0 1 6.63688e-06)
(0 1 -4.19522e-18)
(0 1 -3.95184e-19)
(0 1 4.47573e-18)
(0 1 3.07742e-07)
(0 1 3.8136e-06)
(0 1 2.41632e-07)
(0 1 -2.15779e-08)
(0 1 4.75829e-06)
(0 1 2.1029e-07)
(0 1 3.60021e-06)
(0 1 1.37149e-07)
(0 1 2.43628e-06)
(0 1 2.72216e-08)
(0 1 3.56324e-06)
(0 1 6.2727e-07)
(0 1 1.96108e-06)
(0 1 -2.22809e-07)
(0 1 1.61814e-07)
(0 1 -9.61108e-07)
(0 1 -2.02371e-07)
(0 1 -1.99673e-18)
(0 1 0.000413412)
(0 1 -3.23233e-07)
(0 1 3.78483e-07)
(0 1 -1.12418e-06)
(0 1 -6.85526e-07)
(0 1 6.93445e-07)
(0 1 -5.19123e-18)
(0 1 2.79227e-06)
(0 1 7.64202e-09)
(0 1 -7.69176e-07)
(0 1 4.79982e-06)
(0 1 -6.36201e-18)
(0 1 -1.74433e-07)
(0 1 4.96576e-07)
(0 1 -6.41973e-07)
(0 1 -1.86183e-07)
(0 1 -2.33734e-18)
(0 1 -5.35519e-18)
(0 1 -2.0287e-07)
(0 1 -4.43544e-08)
(0 1 1.00736e-06)
(0 1 -3.82757e-07)
(0 1 -1.57521e-18)
(0 1 -2.91442e-06)
(0 1 0)
(0 1 7.17721e-07)
(0 1 -4.23844e-07)
(0 1 8.3319e-08)
(0 1 7.0166e-06)
(0 1 -7.46431e-07)
(0 1 -1.95705e-06)
(0 1 6.72042e-07)
(0 1 -2.2727e-18)
(0 1 1.211e-18)
(0 1 -1.86017e-06)
(0 1 2.13515e-06)
(0 1 -1.4646e-06)
(0 1 -3.63006e-19)
(0 1 7.80622e-19)
(0 1 1.42384e-05)
(0 1 2.652e-08)
(0 1 -6.61747e-07)
(0 1 -3.65794e-19)
(0 1 -4.66097e-18)
(0 1 2.3665e-08)
(0 1 -7.03138e-07)
(0 1 -1.27145e-05)
(0 1 -4.25316e-07)
(0 1 -3.68976e-18)
(0 1 -1.53452e-18)
(0 1 1.72306e-07)
(0 1 1.89176e-06)
(0 1 -2.67531e-06)
(0 1 -4.04174e-07)
(0 1 -2.06955e-18)
(0 1 -2.94663e-18)
(0 1 -1.01893e-06)
(0 1 -4.00303e-08)
(0 1 3.10919e-08)
(0 1 -1.33307e-07)
(0 1 1.86069e-247)
(0 1 2.00222e-06)
(0 1 -7.48406e-06)
(0 1 -1.14099e-08)
(0 1 -2.725e-20)
(0 1 9.0753e-07)
(0 1 2.76176e-07)
(0 1 -4.28971e-08)
(0 1 -1.94289e-06)
(0 1 1.30288e-07)
(0 1 -9.74932e-07)
(0 1 -3.28924e-18)
(0 1 1.01262e-06)
(0 1 2.83594e-07)
(0 1 -1.36999e-10)
(0 1 -1.22626e-18)
(0 1 -1.51185e-06)
(0 1 -1.79494e-07)
(0 1 -4.52632e-18)
(0 1 -1.10328e-06)
(0 1 5.71577e-19)
(0 1 -1.52651e-06)
(0 1 9.1537e-07)
(0 1 1.279e-06)
(0 1 -3.48745e-09)
(0 1 0)
(0 1 2.04892e-09)
(0 1 -2.27197e-18)
(0 1 1.10907e-06)
(0 1 -1.77856e-18)
(0 1 6.52299e-07)
(0 1 -5.76165e-18)
(0 1 1.52898e-06)
(0 1 -2.13257e-18)
(0 1 3.53897e-06)
(0 1 3.10234e-07)
(0 1 -3.98439e-18)
(0 1 -4.12951e-07)
(0 1 -4.27348e-18)
(0 1 -3.48292e-08)
(0 1 0)
(0 1 -2.12763e-05)
(0 1 -2.68369e-18)
(0 1 -6.38392e-09)
(0 1 1.28636e-07)
(0 1 3.1359e-06)
(0 1 -3.20476e-07)
(0 1 5.97343e-07)
(0 1 -1.18752e-18)
(0 1 -1.81697e-06)
(0 1 -1.65324e-06)
(0 1 3.22936e-06)
(0 1 6.71176e-08)
(0 1 -7.49963e-08)
(0 1 -8.52797e-07)
(0 1 -3.64922e-06)
(0 1 -2.44096e-07)
(0 1 -5.5572e-18)
(0 1 2.21316e-07)
(0 1 -2.34799e-06)
(0 1 1.30457e-07)
(0 1 1.09344e-08)
(0 1 -6.75452e-07)
(0 1 -3.10002e-18)
(0 1 -2.49826e-07)
(0 1 -1.49282e-07)
(0 1 -5.49407e-19)
(0 1 -6.14573e-19)
(0 1 0)
(0 1 1.28011e-08)
(0 1 -7.98484e-10)
(0 1 -7.91845e-07)
(0 1 2.46498e-05)
(0 1 0)
(0 1 -1.93244e-09)
(0 1 -3.32113e-18)
(0 1 -7.4179e-09)
(0 1 9.60253e-19)
(0 1 -2.021e-18)
(0 1 6.91424e-07)
(0 1 -2.63278e-18)
(0 1 4.68207e-07)
(0 1 -1.5327e-07)
(0 1 1.74173e-07)
(0 1 -4.89858e-18)
(0 1 -8.14984e-19)
(0 1 -4.14688e-07)
(0 1 -4.26139e-06)
(0 1 6.35706e-07)
(0 1 -1.09805e-06)
(0 1 -1.05517e-18)
(0 1 -3.9065e-18)
(0 1 -1.28293e-05)
(0 1 2.17516e-08)
(0 1 2.63055e-06)
(0 1 -4.94922e-18)
(0 1 1.0723e-06)
(0 1 -1.74286e-08)
(0 1 2.41653e-06)
(0 1 -6.9006e-09)
(0 1 -2.89334e-18)
(0 1 -2.81173e-07)
(0 1 -4.52465e-07)
(0 1 -1.49064e-09)
(0 1 -3.11701e-19)
(0 1 -2.45661e-18)
(0 1 5.62238e-09)
(0 1 -1.48927e-07)
(0 1 -4.48091e-07)
(0 1 0)
(0 1 8.85566e-08)
(0 1 0)
(0 1 -2.83916e-06)
(0 1 0.000204756)
(0 1 1.59011e-08)
(0 1 -1.35765e-06)
(0 1 -4.46471e-06)
(0 1 -4.58956e-18)
(0 1 -1.89324e-06)
(0 1 1.49623e-07)
(0 1 -2.93383e-18)
(0 1 1.06684e-06)
(0 1 5.60444e-07)
(0 1 -1.78071e-07)
(0 1 -1.11403e-06)
(0 1 -1.03759e-06)
(0 1 -4.55275e-18)
(0 1 -2.22874e-07)
(0 1 3.45486e-07)
(0 1 1.93019e-06)
(0 1 8.89986e-07)
(0 1 -1.63409e-06)
(0 1 -4.38626e-07)
(0 1 -2.46075e-05)
(0 1 -5.59609e-08)
(0 1 6.9691e-08)
(0 1 -1.91442e-06)
(0 1 -2.62636e-06)
(0 1 8.94962e-07)
(0 1 -9.07117e-08)
(0 1 0)
(0 1 5.91963e-06)
(0 1 -2.92708e-06)
(0 1 5.71441e-07)
(0 1 2.76468e-07)
(0 1 8.53831e-06)
(0 1 -2.28508e-18)
(0 1 -3.81296e-18)
(0 1 3.15237e-07)
(0 1 0)
(0 1 -9.40082e-19)
(0 1 -9.20928e-07)
(0 1 -4.19049e-18)
(0 1 4.99963e-20)
(0 1 -3.98513e-18)
(0 1 7.76916e-06)
(0 1 -6.28857e-08)
(0 1 -1.4373e-18)
(0 1 1.21911e-06)
(0 1 6.0827e-07)
(0 1 1.6353e-08)
(0 1 2.46708e-08)
(0 1 1.51432e-06)
(0 1 -1.20684e-18)
(0 1 3.85212e-07)
(0 1 -4.29725e-18)
(0 1 -7.97512e-07)
(0 1 -4.64004e-07)
(0 1 2.45657e-06)
(0 1 9.65775e-08)
(0 1 -1.79044e-06)
(0 1 3.63947e-07)
(0 1 -2.68388e-06)
(0 1 -1.90588e-18)
(0 1 1.74239e-06)
(0 1 -6.73082e-08)
(0 1 -1.33877e-05)
(0 1 -4.59818e-08)
(0 1 1.6832e-06)
(0 1 8.3122e-07)
(0 1 -2.24578e-06)
(0 1 0)
(0 1 -7.21743e-08)
(0 1 -5.29874e-08)
(0 1 -4.9219e-06)
(0 1 -3.29179e-18)
(0 1 1.63206e-06)
(0 1 -3.63592e-07)
(0 1 7.57468e-07)
(0 1 0)
(0 1 -1.34308e-06)
(0 1 -6.96243e-07)
(0 1 1.94079e-06)
(0 1 -5.17336e-06)
(0 1 7.57616e-07)
(0 1 8.73969e-07)
(0 1 1.22407e-07)
(0 1 -3.17676e-07)
(0 1 6.32281e-07)
(0 1 -1.80046e-18)
(0 1 -1.65535e-18)
(0 1 -1.25711e-07)
(0 1 -2.59434e-18)
(0 1 8.6222e-08)
(0 1 1.70906e-08)
(0 1 -1.70523e-06)
(0 1 -5.36838e-07)
(0 1 -1.94592e-06)
(0 1 1.67285e-19)
(0 1 5.09639e-07)
(0 1 -7.15367e-06)
(0 1 -1.82189e-06)
(0 1 6.54597e-20)
(0 1 -4.62055e-18)
(0 1 -2.14724e-07)
(0 1 8.13317e-08)
(0 1 1.06242e-06)
(0 1 -1.13525e-06)
(0 1 -5.77518e-08)
(0 1 -7.58685e-07)
(0 1 5.44483e-07)
(0 1 -7.13826e-19)
(0 1 1.23548e-06)
(0 1 -1.64586e-07)
(0 1 -1.39569e-07)
(0 1 -2.12421e-06)
(0 1 3.11573e-08)
(0 1 9.60772e-07)
(0 1 2.1896e-08)
(0 1 1.48767e-18)
(0 1 1.23774e-07)
(0 1 7.17739e-08)
(0 1 0)
(0 1 7.99203e-19)
(0 1 1.30505e-07)
(0 1 -3.17692e-07)
(0 1 1.01142e-18)
(0 1 3.97827e-07)
(0 1 -1.82586e-08)
(0 1 0)
(0 1 -2.09889e-07)
(0 1 1.58934e-05)
(0 1 -5.99687e-06)
(0 1 2.0424e-08)
(0 1 2.31832e-06)
(0 1 -4.10247e-08)
(0 1 0)
(0 1 -3.13426e-18)
(0 1 3.8939e-06)
(0 1 -2.84812e-07)
(0 1 -2.76962e-18)
(0 1 -1.95837e-08)
(0 1 5.45754e-06)
(0 1 3.00836e-08)
(0 1 -1.27979e-18)
(0 1 -5.87775e-07)
(0 1 2.13629e-07)
(0 1 -5.52251e-07)
(0 1 8.56295e-08)
(0 1 -2.33762e-18)
(0 1 -4.67465e-18)
(0 1 -2.45679e-18)
(0 1 -8.54046e-19)
(0 1 3.61107e-08)
(0 1 -5.31993e-07)
(0 1 7.02486e-07)
(0 1 1.66862e-07)
(0 1 -3.35724e-18)
(0 1 -1.35844e-06)
(0 1 -6.26372e-19)
(0 1 -3.02492e-18)
(0 1 -1.07102e-05)
(0 1 4.2382e-07)
(0 1 1.82624e-06)
(0 1 -8.20032e-19)
(0 1 1.21438e-06)
(0 1 1.02289e-06)
(0 1 -1.68015e-08)
(0 1 -2.56529e-18)
(0 1 0)
(0 1 -9.3031e-07)
(0 1 3.48812e-09)
(0 1 1.86868e-08)
(0 1 6.15555e-08)
(0 1 -1.60387e-07)
(0 1 -1.46225e-07)
(0 1 -3.97998e-08)
(0 1 -2.54105e-06)
(0 1 6.0303e-07)
(0 1 -5.60975e-07)
(0 1 7.25672e-07)
(0 1 8.93812e-08)
(0 1 2.04502e-08)
(0 1 -1.9585e-06)
(0 1 1.18995e-06)
(0 1 -1.06355e-18)
(0 1 -2.82165e-07)
(0 1 -1.68109e-06)
(0 1 -5.36659e-08)
(0 1 -4.29324e-07)
(0 1 -3.63411e-19)
(0 1 -1.4696e-18)
(0 1 -1.29625e-06)
(0 1 1.69518e-07)
(0 1 -2.75452e-07)
(0 1 -3.9786e-09)
(0 1 -1.48574e-07)
(0 1 5.96953e-07)
(0 1 1.29389e-08)
(0 1 -3.33845e-18)
(0 1 -3.93158e-07)
(0 1 -1.42455e-06)
(0 1 -1.25226e-07)
(0 1 -1.38043e-06)
(0 1 -3.53137e-18)
(0 1 -7.34342e-18)
(0 1 -8.0809e-19)
(0 1 -2.11844e-05)
(0 1 -4.47829e-18)
(0 1 -2.60423e-07)
(0 1 -4.46202e-18)
(0 1 8.21184e-07)
(0 1 -5.43115e-08)
(0 1 -6.29825e-07)
(0 1 -8.00097e-07)
(0 1 -3.12261e-08)
(0 1 8.99315e-09)
(0 1 2.15372e-06)
(0 1 -1.1348e-05)
(0 1 -2.47887e-18)
(0 1 -1.1784e-06)
(0 1 -8.71963e-08)
(0 1 -2.4985e-06)
(0 1 1.70934e-06)
(0 1 1.24541e-18)
(0 1 0)
(0 1 -4.77964e-07)
(0 1 -1.48445e-18)
(0 1 -1.83255e-08)
(0 1 -1.82014e-18)
(0 1 -9.6111e-07)
(0 1 2.13636e-72)
(0 1 -3.46073e-06)
(0 1 6.73304e-06)
(0 1 2.38551e-06)
(0 1 5.70145e-08)
(0 1 -9.02971e-07)
(0 1 2.47049e-08)
(0 1 7.64485e-07)
(0 1 -3.03532e-18)
(0 1 -5.94653e-08)
(0 1 -1.22877e-18)
(0 1 8.63523e-07)
(0 1 4.47237e-18)
(0 1 9.09477e-07)