/*--------------------------------*- C++ -*----------------------------------*\
| =========                 |                                                 |
| \\      /  F ield         | OpenFOAM: The Open Source CFD Toolbox           |
|  \\    /   O peration     | Version:  1.7.0                                 |
|   \\  /    A nd           | Web:      www.OpenFOAM.com                      |
|    \\/     M anipulation  |                                                 |
\*---------------------------------------------------------------------------*/
FoamFile
{
    version     2.0;
    format      ascii;
    class       labelField;
    location    "0.252/lagrangian/defaultCloud";
    object      origId;
}
// * * * * * * * * * * * * * * * * * * * * * * * * * * * * * * * * * * * * * //


24703
(
94876
96412
96031
96789
97289
98040
97276
97271
96869
97070
95699
96999
97023
96835
97466
97154
96462
97275
97530
98355
96646
98076
96410
98399
96309
97228
96612
96007
97757
98126
96694
97979
97986
98226
96796
97566
96794
95824
97165
57156
61010
59579
63179
63380
61767
61514
64168
64614
60613
55467
58365
65075
58987
63596
65118
62358
64418
62705
62163
62900
64965
66028
65291
63357
54692
62987
65967
61668
66830
67599
63227
59770
63778
66612
66607
66618
67137
67477
67299
64251
66784
61020
64483
64010
67052
67719
64757
67020
64849
60288
68102
63022
65223
68127
64746
64058
66595
66838
62315
63904
63342
61431
68909
69390
64766
60619
69083
64840
63098
54494
62585
65007
61354
67953
67282
66410
64049
65369
68390
69132
63765
68844
65748
68427
67119
62750
67170
67776
68867
68629
65288
68421
68385
69242
64131
63361
64214
65957
66767
69157
58824
66427
62549
61741
61815
69316
64074
67036
62521
61361
66821
66743
69101
67731
60438
66498
67891
68516
62559
67781
66800
69225
68833
68257
71053
69890
63783
68825
69636
67921
70462
69098
69752
69289
61329
70134
69039
59515
66309
67260
70013
69791
69521
69910
66724
68797
65393
69972
54907
68025
68682
68129
67905
65810
70844
66061
66160
71740
65644
70631
70681
65133
65407
62214
72272
63189
70802
71236
71510
68764
67878
68167
69124
68766
67015
70811
62177
71158
69703
69310
70708
70741
68319
67711
71460
72915
66660
68611
69331
70659
69512
68407
68661
71138
69802
69560
66206
71301
64159
69240
63075
71877
66963
70255
70944
71092
71882
68197
70966
72538
67129
72185
69970
70600
71979
66519
73029
69896
71186
71058
72637
68599
72460
64659
71373
72216
65604
68428
68527
63586
67764
70242
66652
64663
65738
72478
67695
66027
67612
67792
67359
68414
71075
66319
71453
71493
69433
72099
69711
72906
68248
71171
70765
71908
71146
62428
69403
70650
65330
72411
67000
71477
67118
72464
71827
70274
67609
72505
71605
65482
67134
68132
66453
65253
72805
65599
72479
67607
70167
74655
71273
70235
72748
71386
73176
72373
66912
72965
69540
72574
65767
71469
66536
72014
67333
73978
71078
71570
68678
70652
72795
69949
70687
70241
71471
69499
71984
65971
68078
73602
73573
71764
62647
71288
66079
68213
67150
66630
71669
73403
70291
72100
71821
73018
70207
71341
70997
64479
73772
66354
70597
73195
69388
73243
72516
66300
69551
65554
71125
72675
71912
70313
67004
71914
70865
72526
72246
73267
71932
71365
69764
73425
70124
72113
72299
71087
72565
74148
65892
73437
67216
73306
67629
74081
66430
74670
74045
68208
70982
68148
74711
73786
69037
71485
73169
65360
73439
72241
72784
64693
71678
70985
74100
69496
71667
74332
71330
71652
72123
69363
74754
72691
67987
70183
74389
71783
74974
72587
73196
72823
71491
70859
64969
71974
69701
70033
73083
74365
71938
74918
69960
70546
72746
73703
74074
74318
72354
75103
71444
74191
73412
64292
72449
70110
71847
73399
62990
70087
75392
73166
74622
71188
75288
74609
68846
71312
73757
67932
72076
72634
74276
73977
70771
70777
72169
71802
74644
68250
73171
71844
74938
71335
74083
73568
69514
68647
69455
74212
70596
73521
75587
74400
72124
74232
70636
73183
74380
70807
67070
75321
71381
72994
73071
75290
70173
74079
73544
73894
70517
69548
71173
73402
69713
73565
73684
74086
73899
75883
70213
69333
75905
68014
72493
73272
69507
74236
67495
73268
73281
68702
72146
74747
70543
68237
73465
73692
71655
66071
70097
73247
74377
73329
73236
73626
71331
74805
75539
72728
75223
72732
70622
71866
74521
75107
73866
68449
73420
73917
63532
74712
75590
74702
75351
74936
72136
71119
70244
74982
68736
72280
72443
75084
73592
74176
74892
67419
73700
74214
73711
71258
69185
70789
73185
74078
76564
73678
76338
74416
72554
72437
74244
70775
75518
74458
70407
69522
73931
76176
73398
74869
67405
73641
62763
76201
74799
71893
70310
74240
74628
73238
66757
75345
75966
71755
75055
68325
72530
75390
73533
74182
74387
71511
70436
71422
74582
71744
74686
75738
74764
75576
73625
74355
74185
72863
73774
75192
76303
73027
75848
75024
69287
70203
66966
75116
75475
72385
75402
71884
73307
73308
76594
75654
76134
73600
76454
71428
70980
73646
72178
74928
68774
73201
73459
74551
69376
73479
75454
73863
74992
75485
70374
73390
75741
72338
69726
70078
71179
75867
69938
74613
74632
75364
74008
75226
76702
75424
75471
76195
75934
76811
74444
75558
71019
74611
76085
71461
72974
74811
75689
76930
75805
76606
75237
76574
76091
75655
76441
74728
67293
73888
76388
77374
76918
73139
76799
68576
75019
71592
77367
72350
76666
71641
64781
69875
71814
75359
75921
76731
71773
75899
75601
72745
72669
73007
73371
76463
74518
71432
73490
76773
72315
73326
77055
74680
74089
70382
75395
75432
74509
71921
73044
73655
73300
73756
70683
75493
72760
73177
77079
75954
76631
74840
74697
75018
76292
73355
75047
76324
73378
76174
75205
75684
74789
75713
77235
74638
76148
72470
71578
76906
75102
72428
77671
75098
73669
75534
74397
75742
77129
74134
73245
73436
72771
76509
74763
76149
76900
74076
76903
72880
76067
77142
73126
71930
75408
72825
75389
70635
75791
76401
67218
70034
76697
77765
72430
75535
75468
74700
75869
75289
74440
76317
70558
71418
74854
76829
76680
75130
71114
78919
77195
72709
76215
73732
76772
70094
76813
75585
76162
72510
77198
75860
77357
69086
76372
77975
74427
75600
76941
77047
74426
69217
73819
73675
75566
71556
75304
74396
73891
73825
75962
71899
69389
74147
76674
77042
72819
74448
73449
74183
73282
73802
74691
74270
65822
76959
73295
75737
75451
76087
76212
74635
76015
74874
75965
73336
78033
75444
73357
73572
74953
77801
72175
73129
76896
73664
76433
77153
76293
76924
75612
77260
75076
74901
72601
74164
76848
76601
72768
76603
77007
75767
76259
78315
75893
75636
71983
77282
76316
75764
76137
76376
77608
74499
75710
73502
75775
75683
77010
76957
77928
77412
76758
75857
71775
77998
73642
75254
75736
77945
76305
72874
75567
74808
73391
76161
71070
76188
74947
74751
67674
71657
76121
74512
73991
74520
74256
76725
72363
76241
75925
76696
76082
77364
76539
75346
75556
69914
76382
76281
77745
76569
71613
75552
74740
74453
76944
75617
75808
77156
75572
77145
72591
74142
77629
75836
76434
76449
71611
77640
77033
74705
77222
75868
75530
74491
75194
76472
76540
75211
75259
77124
77295
75163
76764
75472
77708
74865
75099
75608
68819
75209
73074
73644
75193
77300
76132
74508
76110
74762
77965
77824
75665
76973
77507
70224
77897
76853
76461
76925
73534
75189
76670
74137
78557
76424
76877
70937
75811
72782
75837
77106
75744
73484
77887
77212
77114
77876
76256
73096
74585
78075
76175
78703
74119
75302
73118
74668
73342
76243
77808
77051
77547
74335
77651
76409
78323
76531
76064
75751
76570
74105
74957
73762
72687
76996
74510
75473
75470
78088
77417
78056
75413
76565
75441
77109
76398
73952
77072
75561
76563
71481
73627
77692
75247
77462
76815
76891
75272
76828
76550
76701
76391
75983
72807
71995
69348
78862
74195
76347
74610
75258
76236
75400
77550
76430
78470
77762
75793
72938
75995
76586
76366
74560
77680
70468
77770
77771
77026
73262
72214
77141
77265
78222
76837
76582
75119
77520
74388
77648
78293
74102
71490
77678
76882
78511
73124
76099
76339
76288
78382
73105
78950
76355
76760
73823
76242
72330
77873
77368
76274
75586
74573
77238
76022
77727
78643
78295
78500
73564
72735
73467
78412
71035
77071
73869
77413
76151
77102
75081
76337
79628
78423
77399
76251
74822
74392
76933
78977
76362
74360
77252
77158
78242
76671
78487
74115
78697
77628
78816
75639
76802
73896
75245
78550
78653
77505
72034
74514
77533
77911
77549
76567
73788
76921
76140
77633
73559
77892
77028
73486
78436
76012
78494
77950
78244
77527
76827
76640
77344
77054
76105
74436
75896
78535
76729
79058
79778
70981
78896
77193
74492
78060
75773
77197
76000
74915
77378
76210
78299
78684
77698
78902
76707
77844
76528
76993
77032
76465
78823
73319
76954
72290
76675
74254
77336
77568
76662
77701
74566
70298
76860
76103
74150
70801
75894
79212
77918
78924
77358
77323
78955
76191
77590
79178
77703
79557
71221
77104
78645
78767
77565
74109
78217
74085
75215
76517
79364
75900
75694
74714
75673
77446
78921
78948
77710
75985
76664
77111
72243
74893
74986
77862
71234
79442
78296
78331
78429
74550
78069
79332
77110
76034
79005
75570
79619
79041
78629
77182
77131
75688
69437
77731
78198
73019
78319
76026
78023
78803
74939
78328
75700
78790
78270
79966
76486
73301
70409
79644
77474
77473
76508
78717
79472
74228
72524
75693
75196
78951
76747
77415
78018
77074
77269
78486
78835
77454
77894
79157
77821
77494
74037
79031
77437
77393
79400
77245
74856
76881
78261
72398
77985
73207
77601
78504
78747
77702
77091
77588
76357
79280
77483
78044
74053
78829
75843
76059
78585
78113
76803
76393
79140
71807
78379
77237
76982
78701
74896
75017
74694
77664
75492
75315
75242
79788
79014
77380
77768
79035
78297
79389
80725
76222
75016
77416
78394
74888
76069
78303
75911
77274
74481
77834
78906
79414
78166
78624
78527
78587
78904
79568
79387
78231
78887
77740
76307
77832
78886
78786
79103
79523
74966
76874
75206
77296
78893
78532
78427
78695
76935
79726
71284
79044
75313
77571
78209
75026
79397
76759
75457
77119
76514
72578
78415
72378
76899
71015
77908
76857
76272
77302
76719
68664
77646
79358
75656
78989
76076
69318
79593
79839
76989
77594
78817
76931
79046
78839
78276
79008
77496
75421
77896
77093
75897
78519
78437
75975
78712
78208
78640
79802
73689
75456
78692
75858
80165
78288
78674
79001
78725
79128
78016
77569
77741
76096
78789
79135
78770
77337
75074
76561
75187
76952
76490
79345
78806
76189
78826
79774
75782
76116
76645
76807
80032
79020
73187
75343
75643
78863
79663
78419
80263
76817
77069
78922
76883
70645
79529
77331
78669
75269
74827
77084
79245
80671
78895
78353
77408
75415
79434
77024
79782
76172
78064
75450
77377
78348
79399
77402
78188
78254
79712
76855
79032
77194
78769
76861
80662
78670
79089
76667
78230
78648
77472
77889
77138
80202
80253
79069
78219
78212
75332
80314
78611
80079
73853
73750
78092
77954
75830
78632
78145
76894
79642
75278
79394
80182
78749
80027
79467
76672
78098
76216
80420
78317
79169
74757
80041
76621
78422
77442
78566
74845
77183
79204
78408
71698
79291
74701
78869
76184
79138
80014
78196
77554
77517
77016
77316
79829
78967
77592
80437
77612
75734
76949
80073
79851
79355
76617
77886
77459
79356
73874
76266
79282
79222
78420
75129
77073
79512
80380
71062
79629
76311
74996
76806
80951
76494
79573
74006
79184
78983
76750
78880
77450
79889
77434
78090
79678
77572
80283
77444
77017
74819
77705
74548
76060
80297
77335
79420
79924
75709
80167
78162
73836
78358
76854
76682
78879
80438
78086
77023
77882
76602
76370
78503
76886
77130
80278
80695
78776
79452
77670
78973
78473
80123
78828
80358
80033
80043
78372
80449
77883
79761
78665
78406
80787
81346
73395
74746
78189
81437
78775
78615
78181
79336
80592
77838
80112
79357
80141
77715
78172
72865
78356
80983
77943
79346
78741
71195
67793
79061
76487
79945
78078
79270
69753
81152
79176
76394
81315
80164
75316
79161
76711
78932
80196
80146
78778
76620
81005
78248
79677
73679
75212
77840
80203
78531
79457
76642
78733
81086
79880
80175
74290
77813
81255
80717
76554
77108
79994
80439
79471
80900
75268
81091
79795
79427
77831
77258
79503
76061
76024
75383
76726
80903
78613
77397
78502
80070
80630
76639
78195
78079
79120
77254
74665
79483
79017
79732
81173
78780
79342
79227
78325
75645
75927
78439
78337
76969
77787
80782
78218
77791
79071
80088
79993
75610
79898
77049
80973
77750
77978
78335
76552
78378
76264
79117
78571
73660
78736
80271
80463
79801
78944
81372
77642
76929
79360
76637
76500
79874
77170
81155
77207
79468
78508
78715
77653
79154
79893
77993
73364
76600
79142
78699
72415
79118
78471
81656
78536
80204
81337
81102
77543
74813
78657
80819
75806
78304
78711
79672
76549
77070
79754
67649
78737
75919
78170
78546
75644
80971
79578
78435
79804
70696
76294
78820
79664
79944
73374
79648
79969
77870
79668
79173
80511
80022
77660
79466
77509
80707
79455
79683
81252
81479
80948
79786
76328
79919
80000
80512
81542
78978
81020
75682
80935
80483
77146
78121
72928
76938
79259
78505
78179
77346
74946
80756
81702
80921
80406
78476
75178
80517
76880
79566
80654
79029
77785
81669
77320
79700
79021
79583
80924
76126
79600
73206
79090
79511
75342
77624
79604
80279
78598
73739
76660
80334
81019
81861
80242
76838
80953
75338
80799
80791
78447
76836
78311
74608
80255
80172
80593
81021
78169
80469
79729
78605
77015
81657
79295
77484
80605
79952
79506
79486
76633
78652
79875
78368
77215
80136
76763
76062
79974
80117
80316
78404
81652
80383
80100
78788
77168
79425
77912
72619
79660
77997
76459
79559
79724
81739
79210
79348
78619
79223
81895
77964
80299
77326
80500
80442
79039
76709
79419
80411
80199
81101
77747
77730
77573
81105
80212
81164
79949
77411
78901
76980
77164
80256
80368
80820
81565
78579
78433
81217
81341
80667
77143
75817
77782
80433
81488
80114
81351
77626
81228
80288
81452
78157
79857
75417
79024
81259
75948
80336
80466
80642
77857
80572
77458
79281
77499
73988
77540
79913
82115
78602
76329
74329
79772
75863
77154
78141
81481
75589
82109
82308
82046
81386
80416
78881
81771
81314
78830
75041
80795
81260
79611
81115
81116
78698
78186
77559
79385
80396
81080
79338
80949
80731
82061
79916
80470
77243
80046
83256
76276
75818
81812
74929
81577
77498
80728
81025
76352
82177
80035
79863
80520
80482
78509
79087
77150
80751
79808
79082
80525
80976
80092
76296
79100
81862
79713
74287
70664
81461
74362
79406
80122
81180
80285
80171
81376
78134
80375
77404
80663
80444
82397
81334
82802
78277
80868
79767
79543
82146
78446
80851
78857
81165
82307
78135
77502
80992
80643
82122
80339
81467
81366
78575
81168
75460
76050
79860
79615
79481
71225
80071
77638
78540
76367
82258
80290
78324
78421
74835
80012
81950
78424
81964
80166
80496
79165
81660
79179
78961
81208
81113
78590
80661
77065
80599
76895
82104
82958
81442
81169
77932
79936
79474
82891
80330
79177
79062
75834
82206
79895
81705
81317
78294
81132
77488
82241
81503
82994
80224
76850
80089
82300
80476
82622
82228
78807
78850
80557
82143
81730
79495
80677
75607
76768
79241
75476
78465
82677
81614
80300
79612
82723
78369
80488
80796
79734
82820
80758
80988
80952
77465
78340
74760
80435
81189
75515
78249
82017
81811
76789
81114
82659
80385
79685
80743
79658
81694
82842
78907
79367
80305
77593
79423
79856
75653
81761
77173
80104
76417
75945
81951
81601
78840
80644
75292
75117
80329
79745
77668
78227
79674
82601
80370
80621
80843
76840
81998
80362
81615
74265
77603
81989
78621
82251
79152
80735
77003
78926
78426
81148
79473
78099
78764
79403
82342
77893
82562
83684
81713
82576
80210
79861
80680
81667
79410
82137
80852
78245
73250
79197
80259
79235
80816
81462
77078
81474
80581
78678
79746
82711
79739
80683
82597
82376
81356
82274
75243
77293
81406
78391
81118
79640
76831
80786
81782
79302
82302
82738
78451
78744
76890
82121
78065
78800
81265
82821
82504
80955
74094
76327
74466
82331
77019
81166
76839
81840
81167
80929
83321
79126
81458
82954
79015
80765
80947
80356
79067
82168
81832
83085
80698
79620
78876
81220
79755
82624
78755
76492
82563
80849
83239
82111
74009
81762
80632
79930
82988
82516
81573
81636
81014
79951
77917
82993
81593
82234
80846
80200
82995
78991
80011
82943
79986
81940
81275
79163
80893
80614
79234
82225
82363
77373
82101
81663
76108
79198
78124
78142
77735
82011
80194
82465
81253
79354
80189
79586
82493
80158
81717
76580
75756
81914
81552
82483
82357
83112
80121
80321
81106
82256
80556
73524
78067
80425
80839
81523
78683
84639
77957
81634
82375
81759
78155
82422
81028
80866
75137
78059
76485
81194
78361
81401
77420
79771
79607
71876
82612
82175
76523
78506
83659
77905
79412
77707
80284
82005
78634
81309
81856
82720
81625
82957
81085
80134
80354
75039
81781
83751
83501
81037
82963
82870
82742
82636
78544
79842
76913
82242
78310
83087
79153
82103
82359
80096
80518
80566
78143
81161
80984
80473
78359
77095
77990
83279
81661
80920
80694
83234
83854
82180
81906
81482
81794
76504
78794
78825
81907
81026
81721
81744
78402
82524
80854
82312
82123
71588
82131
82752
81096
82240
81410
81877
82031
82916
83003
77929
79341
83094
77820
81469
81490
83986
78272
81572
79756
83516
81002
80982
82823
80835
80273
81104
82784
78223
82172
78552
78682
82778
82838
80989
82791
79616
78547
77885
81814
81323
75646
75538
77307
80238
75952
77864
81043
80872
79846
82529
82970
83355
77060
80716
82426
83976
76432
79113
83705
82812
81007
83333
77879
78332
78856
80897
81756
80979
83513
82063
82475
76029
80880
80040
81402
82729
82414
81567
79989
83862
81754
83709
77903
78642
78542
81917
80407
81414
82841
76535
78525
83444
79219
82421
80038
78480
81582
78851
82925
82940
79610
78894
79820
81555
82702
81055
79580
80168
79634
77511
79999
81847
77464
80044
77774
83323
82819
75842
83009
78713
76414
79552
80195
77685
83378
82238
78756
81399
82278
79545
73056
82078
75959
81071
83765
79641
81075
82182
80549
79815
82171
84199
84390
78151
83474
75388
83369
83780
81250
81384
83364
80918
82382
80928
73180
83814
80981
82442
78975
83937
68520
74484
78045
80546
76738
82201
78221
81544
82402
83463
78458
83298
82654
79256
81178
81971
83130
81355
77951
82747
81182
77231
84557
79585
82974
83042
79124
83142
77839
81945
83935
82320
77968
78161
80752
76269
81308
81044
77661
81532
82301
81793
74590
82776
82797
73302
79034
82741
79265
84178
83946
79107
80381
82436
81579
82763
82477
80197
82951
82184
79599
77835
83343
83630
81595
81805
82457
82090
82212
83168
82492
83441
82945
79230
83518
80940
81498
83271
84051
78247
83195
83253
84365
82876
79182
81050
82896
82419
83097
79114
82632
82136
82929
79340
83242
82718
82272
83348
82781
79976
80860
81747
77422
81946
83848
79914
83459
81975
81210
79398
84026
81992
82148
83947
76744
75306
78003
81620
81611
81961
80568
78445
85009
79792
78545
83737
78923
78104
84551
84469
82782
81550
84525
81371
82953
80293
77794
81635
79665
83179
82297
78970
75616
81729
80026
82100
78136
80191
81764
75234
82107
77438
81476
84066
82269
83359
79349
82725
81012
74311
83644
83539
84498
82619
83635
79670
83545
80537
83020
82384
82019
75186
80440
81507
77455
82391
82535
78289
80479
79647
78326
83202
74887
80577
84270
81872
77942
84492
83719
81698
83700
82751
74942
78721
82431
80016
81374
77909
82377
79359
77613
80467
84672
82385
78625
78350
84346
82383
76781
77973
78346
83841
80831
84134
81069
82315
82523
80447
82724
80350
84394
82727
81251
78686
83489
80388
80679
79214
82965
76816
84591
81375
83821
83543
82541
84477
83014
84552
84169
83769
75525
83856
84094
83781
83828
82237
83264
78548
78428
80281
83593
84875
84167
83391
79148
81525
82869
77476
82310
80436
78041
76784
83283
82167
81325
83649
84765
78409
81084
80086
81869
78305
81245
79426
84200
83096
84150
78709
81870
77355
83327
79730
84686
83950
79502
78497
83689
82076
83026
84060
81817
82243
80691
83924
84182
77405
84146
79247
78993
79867
83880
83580
83165
81898
81701
82188
77689
85529
84827
80993
84452
83632
77371
77614
79827
83546
80399
81955
82749
77541
81363
83275
79149
84324
81830
83332
83707
84087
84039
80939
80192
80081
81706
83187
81801
84803
80082
80681
82696
84351
81860
80149
77971
77996
83289
81556
82777
81540
83925
81004
83618
79207
83724
79172
80386
81398
82919
79325
81457
84817
83695
82303
82349
80834
80325
83770
84244
84747
82248
82348
82273
84426
81227
77880
80827
82454
82162
77155
84404
81174
81783
82145
79579
83529
83555
85020
82672
78084
80502
77094
83311
84745
84542
82159
81804
84729
85468
77756
81352
81646
82233
80700
77757
82847
82686
82319
80650
82364
79108
81333
73789
77284
84413
82220
83805
78243
82401
84080
83699
74169
83591
84752
84428
80668
83140
82805
82293
81549
83667
84946
81400
85379
82992
82787
85888
84563
84560
83720
78363
85540
79437
78466
79236
79298
85388
81612
82828
82942
82931
83016
78482
81728
81829
82864
77356
78792
79954
84020
82289
84830
84316
79587
79351
79727
81749
78454
84030
83958
79105
83119
84531
83021
84082
83975
80075
80317
81147
84031
82333
84274
83979
83345
82096
82946
81288
84774
77211
81443
79981
79093
79929
81731
81596
78434
85189
81890
84307
85603
83533
76083
84556
81495
78815
84616
85259
81842
82818
77752
80349
85934
78440
77924
79137
83325
83627
83849
78627
77381
79232
80021
84698
76917
81391
80157
81003
81327
82548
80024
81984
84348
82353
79050
84079
81727
79206
80066
84737
77518
77816
82651
78085
83978
84088
79728
84009
79428
84844
78495
79174
83571
77082
76588
82582
81027
84162
74666
81231
81276
74336
83740
84005
85169
82845
78225
79834
84721
83113
81643
80755
83951
78156
84133
79876
86486
79692
84055
84050
82594
83825
82674
81864
83846
83536
82922
82739
84342
81581
84451
84347
78997
77673
83493
83358
82634
82404
83111
84603
79809
74934
82715
81693
83669
78915
81967
81421
85727
76566
81777
84758
82735
79365
84807
78940
80745
81212
76945
80534
78004
83754
79763
78025
77419
79491
75199
81133
84116
79716
82147
82528
80942
81677
83939
83548
79890
84494
82473
85481
80376
84733
86310
82706
80465
84357
77180
82447
85329
78871
83819
84916
85534
82468
81641
78522
82092
84860
78020
83183
80107
80481
85777
80888
80085
84106
83484
80604
82071
79673
81415
83190
85349
83885
82458
79878
78976
81823
85567
84522
84267
77068
83730
84608
85142
76847
78204
85392
79988
80954
82287
85491
84214
81787
77478
83817
83962
81996
79408
85649
84869
85400
79443
80733
83460
80821
83799
82840
77758
83440
85350
83126
83053
81271
81449
80859
78370
83011
84440
84466
79816
83956
85331
83936
84872
79337
76746
81920
86046
85017
84953
79309
82972
80749
80494
84184
84397
81722
80784
83552
82849
80477
82809
79707
86386
86095
83287
84635
83870
78617
84840
81786
80990
81243
83393
83065
79049
82194
82118
81879
83941
82263
81880
83631
84625
84634
79971
75056
79125
79922
85064
80923
84917
81001
83520
79146
81819
82362
85808
79239
82591
85285
84992
80333
81769
79378
81307
84617
84000
76841
75845
82799
85738
81192
85699
76464
82574
84896
85376
83679
82105
83059
79962
81077
79060
83442
84018
84252
79584
81274
80850
84383
82913
79883
84337
85916
78031
82286
85831
84292
77530
83731
79286
83189
86239
80318
85696
81921
82678
81613
81500
82785
83157
82324
84057
82350
79395
85977
81865
83668
85843
84433
80547
82187
80342
84073
81293
83282
83127
75009
84863
84822
82261
84333
86382
84381
82748
85068
84004
84689
83067
78858
81551
84943
82762
82661
84599
83837
79478
84419
84955
82252
82579
83201
79098
81735
83248
83907
81435
85703
83569
80455
84455
80645
84035
85323
84984
82299
80051
85903
84691
85920
78468
81758
84145
84032
80148
78210
79224
84272
80401
81903
84610
80541
83628
80788
79811
81433
82098
84109
79892
76481
83923
81757
85823
84127
80748
82190
84930
85454
84791
79391
76858
80704
82657
78963
80371
81497
83049
80228
82555
85033
76632
82368
85115
81883
82824
81235
82215
86816
80811
84944
80280
85146
80514
79109
83867
84810
83273
82230
85752
79925
81322
80109
84313
86544
81010
84161
80464
83869
82754
76053
76074
85963
85482
81432
84410
86936
77570
81140
85815
80489
84149
83773
83735
85577
81779
73799
85266
81302
83723
86131
82094
84158
79920
84476
82897
84726
84666
80883
79696
84007
85849
78148
78675
85847
77363
85866
82166
84949
75537
80943
84684
83759
83105
86154
83232
83934
76867
86581
80250
84734
85028
79638
81974
84276
85591
83918
78873
86109
82106
82694
80387
83149
85356
83360
85753
76575
83639
86072
79213
81073
81810
83292
77148
85197
80966
79977
82271
86029
82373
86460
85898
78868
81630
85167
82479
79347
80338
85343
84503
84287
78108
80801
86542
80245
82509
79306
86292
85449
86083
83456
84212
85275
84607
83702
80142
84924
83648
80802
84793
85821
80688
84912
85519
80060
82894
81672
80670
83410
83535
84155
80544
82219
86637
82332
79979
85178
85557
85833
85761
77802
86112
84380
81796
78489
82112
84823
85592
85182
81264
84787
82358
76374
85499
83954
85018
84697
81060
85395
84047
84611
81716
82665
85788
85312
84824
86250
83285
83812
86229
79865
83048
78533
84558
85879
86270
83745
82119
85973
83877
81522
77852
82178
87099
79563
85996
86442
82035
85004
80392
84261
83558
83258
78565
80485
85325
86845
85439
86759
79272
84245
85885
80497
81153
78380
80766
75846
84975
82149
86731
80050
81682
84703
82927
84871
84628
82765
84249
87614
86513
83132
81157
81330
82806
85832
86881
86604
86898
85359
85912
85606
86144
86665
82941
76056
86243
84507
87016
84467
79030
86249
84797
86835
86043
77482
84585
85775
84122
79053
83309
82705
82165
77789
82961
84755
83549
79134
81750
82446
78499
77644
79392
79242
82664
85019
83980
86640
84247
86931
82089
86432
84952
77188
86361
83884
84627
86327
84867
83070
83995
77501
77050
83186
80211
86092
79973
82834
82040
85818
82880
85502
86577
82643
80151
81146
79662
85118
86390
83621
86280
77289
81211
83682
80629
84801
81306
83074
84332
84976
83217
86372
81528
83617
85091
74969
82549
86145
86705
87562
83413
80912
83120
86377
86126
86906
81430
86474
83517
81775
86395
86726
86723
78959
84707
85740
81305
86699
77314
84372
79074
85709
84393
88064
80817
84028
83384
85855
78995
84114
77489
85987
81969
85555
85663
82282
87192
81564
79923
85760
87808
86712
81383
79248
81526
80648
87208
78493
86173
81446
83678
84620
85209
83522
87039
80583
84778
86202
84111
82638
82603
84121
78601
79484
79416
83879
82698
84250
84509
82983
85876
85887
83970
85686
84926
82873
85000
82038
75766
79233
80665
85722
86529
81377
81803
83354
84862
86621
80153
82607
86585
84893
83136
84025
79906
84544
85864
78777
81412
80885
84621
86074
82895
82372
82856
85565
83104
87302
79066
78753
81284
86400
85653
79917
85946
83421
83985
85123
84947
82392
85403
86062
77361
83560
84493
86197
85412
82173
78929
86535
86985
85985
87500
85795
85770
84040
86009
86583
83028
79547
82444
86517
85111
81024
84489
81690
82832
85829
81868
80813
86355
85979
85961
85868
82850
83573
78568
77555
81090
81703
80899
85404
86929
85175
87473
88707
79396
81472
83159
80902
86765
86385
78846
79418
84699
79190
77825
85870
81926
84933
83774
86487
84488
82979
82438
84447
84374
85484
83502
86470
82361
75154
83822
85008
84959
86348
86560
86605
82138
84454
77418
86508
86852
78637
84465
86865
82501
79273
87370
86060
86337
80727
85433
82113
80478
87086
84195
86403
85573
79814
82395
85223
83331
82611
84296
85208
86595
85177
86730
83806
85528
77843
83599
83342
86998
79203
86065
81072
81214
82918
84570
77523
78537
84187
82158
83503
84229
84110
82743
79072
86842
87060
84718
80244
83853
83194
86165
83055
84948
74834
87137
78897
81408
84942
85141
84744
86657
79927
85947
84583
88041
80706
86656
87366
85797
85595
84855
86561
85154
87405
87643
86591
80689
79327
85059
87233
81230
79650
81121
86888
85199
85732
78286
87729
86780
81068
85133
86004
79886
84908
82264
83004
84231
80656
81849
83634
82108
87355
86435
85755
86714
81866
86451
79910
86627
86266
84222
79004
85512
84997
79407
86262
87251
85138
83302
87955
82192
86353
83519
82305
84605
79189
85386
85873
79561
80789
82328
85625
87120
84592
88052
86002
86556
82390
86168
82155
85545
82489
85307
86073
86366
85090
87462
79318
83200
77666
86975
82160
81428
88212
84043
81353
80738
87338
82346
85256
87970
87825
80742
86966
80105
86911
85358
87593
85500
86185
84879
83320
83171
82044
84940
80126
77674
84089
85859
83989
85785
84432
81141
87578
84414
87124
86259
86579
85852
78459
86654
86133
77940
82294
84736
80905
85628
80493
84873
83563
86090
83755
88702
85221
87511
86572
87611
84587
81422
87112
85792
87422
87225
87853
86532
86434
81049
83228
87118
85096
87083
85542
87226
86392
82042
85634
87714
84431
87045
87399
81697
86710
85501
80169
86182
83920
84685
85347
76955
85294
86960
80170
83972
81471
85013
84264
84581
81887
85614
83214
81841
86878
79996
80575
88759
81845
81688
89261
79768
85594
87767
86543
84540
86974
88008
87057
88747
79551
84112
85430
86565
83663
85860
83213
85232
87199
85936
83865
84309
80623
78498
81332
81510
81968
86211
81966
86953
87476
89974
79465
87446
86740
88059
81287
86831
85585
86017
85615
81973
85717
85965
84784
86972
81013
86213
79384
87640
76306
87281
88157
85367
87768
87794
80781
82323
81991
84021
80190
85768
85914
86459
80052
78654
87501
86676
87360
87898
78253
80753
80097
86777
84835
81857
84837
78560
85635
87186
88160
86718
83892
83075
82067
84487
88181
78618
86603
78992
78905
81254
87454
86570
82128
82153
81537
81691
84804
81038
80120
87659
87219
87953
86727
87287
86783
79275
87179
83722
86799
79651
85773
87379
85862
86940
81176
80830
77935
79250
87168
83090
83792
87919
87059
84899
87250
81296
84054
85824
85646
88175
83795
86317
78442
87076
85654
81714
89401
87823
81261
85561
87100
87968
87816
86186
80404
84901
77396
81937
88843
86957
80907
83110
85417
77216
81808
82590
85274
86915
81108
85576
78441
89386
85424
87843
87630
86094
86276
81361
80887
86217
78232
86691
86134
88808
88580
80869
85007
86056
85202
82911
84576
87297
86733
87296
83317
84520
78463
81876
79430
80584
77076
87790
83540
83192
87136
86339
85421
84225
79681
77351
82558
87613
76745
79500
78477
87681
82947
86837
82955
86356
85436
78534
84825
84398
85410
86198
81221
85101
87694
84194
81266
81909
86409
82075
83423
86811
78854
84890
87868
87633
78071
85372
87574
86749
82533
83465
83167
83574
84046
85187
87910
88039
86616
82008
87931
83873
81616
86150
83572
80412
88539
87388
79710
82999
80741
81502
77746
85066
79540
87337
79501
82547
86496
84425
87776
79787
82195
86257
87229
88285
79553
88089
88735
87073
86384
88474
83876
88065
86641
81932
86848
85332
88167
86391
86798
88895
85489
83082
86161
87108
88495
88672
86887
85682
86123
90306
88141
83691
87459
84069
88990
87258
87773
83461
80178
88997
86179
83485
84674
78146
86369
88659
82208
88217
88188
87935
85476
84315
84600
82692
89039
84577
75912
86375
86347
83251
85196
85219
86932
88414
86978
85042
87566
84099
85933
81583
85679
86177
88384
78781
87872
85195
85260
84850
85842
88481
87547
88540
80501
84065
85611
88049
87055
86814
81233
82852
81561
87349
81340
88905