/*--------------------------------*- C++ -*----------------------------------*\
| =========                 |                                                 |
| \\      /  F ield         | OpenFOAM: The Open Source CFD Toolbox           |
|  \\    /   O peration     | Version:  1.7.0                                 |
|   \\  /    A nd           | Web:      www.OpenFOAM.com                      |
|    \\/     M anipulation  |                                                 |
\*---------------------------------------------------------------------------*/
FoamFile
{
    version     2.0;
    format      ascii;
    class       Cloud<passiveParticle>;
    location    "0.252";
    object      positions;
}
// * * * * * * * * * * * * * * * * * * * * * * * * * * * * * * * * * * * * * //

24703
(
(0.10696 0.0174758 -6.45269e-09) 9493
(0.119741 0.0135813 -2.14871e-08) 8500
(0.103183 0.0116868 -1.16387e-08) 8091
(0.124506 0.0195184 8.5929e-11) 9902
(0.113947 0.0152338 7.42836e-09) 9097
(0.0853461 0.0125015 4.18139e-09) 8281
(0.1132 0.0142984 4.7411e-09) 8696
(0.12327 0.0126537 6.67038e-09) 8301
(0.12541 0.0107848 1.59611e-10) 7702
(0.123569 0.012482 -2.15583e-08) 8301
(0.124095 0.0114182 -1.99273e-09) 7902
(0.124113 0.0103049 3.84341e-09) 7502
(0.125066 0.0112036 8.18746e-09) 7902
(0.123876 0.0128031 -2.73673e-09) 8302
(0.124584 0.00987392 -3.43891e-09) 7502
(0.122918 0.0109903 3.77878e-09) 7901
(0.124241 0.0110505 -6.39912e-10) 7902
(0.122127 0.0107998 -3.34311e-08) 7701
(0.119085 0.0120481 4.79984e-09) 8099
(0.0960163 0.0128047 -1.9279e-08) 8287
(0.121129 0.0115611 -2.89931e-09) 7900
(0.119924 0.0116503 -2.46369e-09) 8100
(0.117289 0.0118282 7.19439e-10) 8098
(0.120272 0.00983629 3.67411e-08) 7300
(0.0814476 0.0121116 2.30611e-10) 8078
(0.120899 0.00914773 -2.02106e-09) 7100
(0.12107 0.00964144 2.54798e-09) 7300
(0.116867 0.0117101 -1.13286e-09) 8098
(0.121772 0.0101761 -1.09726e-11) 7501
(0.123755 0.00962357 2.17274e-08) 7302
(0.117744 0.00950608 2.54705e-09) 7299
(0.125235 0.00912179 -1.84072e-08) 7102
(0.121182 0.00914442 2.30841e-09) 7100
(0.125686 0.00908708 5.89985e-08) 7102
(0.114939 0.00911172 1.43021e-09) 7097
(0.114902 0.00907421 -5.1041e-09) 7097
(0.111309 0.0118196 -5.1034e-10) 8095
(0.114088 0.0114412 -1.38107e-11) 7897
(0.113461 0.01162 1.46238e-08) 8096
(0.499735 0.0447948 2.28832e-09) 12999
(0.396095 0.0451207 6.70189e-10) 12982
(0.494931 0.0479551 -1.00746e-10) 13199
(0.496119 0.0362355 -1.33513e-19) 12199
(0.494591 0.0512467 -1.55033e-19) 13599
(0.485517 0.0418645 3.99975e-08) 12797
(0.49286 0.0426982 5.48826e-09) 12798
(0.49842 0.0442876 -2.00048e-11) 12999
(0.499742 0.0450292 1.43144e-08) 12999
(0.495267 0.0512014 -3.93915e-10) 13599
(0.496851 0.0350877 5.78662e-09) 12199
(0.497337 0.0393186 2.34696e-08) 12599
(0.480825 0.0464843 -1.94499e-07) 13196
(0.498912 0.0467627 2.16297e-08) 13199
(0.495099 0.0472877 -2.3307e-08) 13199
(0.484606 0.0499453 -2.45118e-19) 13397
(0.493572 0.0361691 2.78457e-08) 12198
(0.496004 0.0364877 -1.65948e-19) 12199
(0.488329 0.0442347 -2.72774e-08) 12998
(0.482073 0.0460157 6.05592e-08) 13197
(0.495745 0.0475874 5.05304e-10) 13199
(0.476679 0.0435852 1.10668e-08) 12996
(0.474137 0.0534286 -1.97631e-19) 13595
(0.49948 0.0416141 -1.98715e-08) 12799
(0.460479 0.0395604 -2.35912e-08) 12593
(0.483178 0.0381238 8.2139e-09) 12397
(0.457349 0.0441713 4.62069e-08) 12993
(0.492298 0.0442931 5.26787e-07) 12998
(0.499116 0.036491 -1.11237e-08) 12199
(0.483007 0.0400843 -8.60404e-20) 12597
(0.486853 0.0465416 -1.99264e-19) 13197
(0.495439 0.0473052 -7.98155e-08) 13199
(0.484022 0.0433344 1.20248e-09) 12997
(0.496275 0.0391386 3.25054e-08) 12599
(0.489222 0.0470987 -4.6026e-08) 13198
(0.481737 0.0404296 8.35129e-11) 12597
(0.465433 0.0486448 -1.57482e-19) 13394
(0.499476 0.0371099 2.56564e-07) 12399
(0.453862 0.0476046 -1.25363e-19) 13192
(0.491854 0.0426273 -2.3918e-19) 12798
(0.480868 0.0410302 -1.00248e-07) 12796
(0.492561 0.0404147 -2.44274e-07) 12598
(0.492844 0.0426301 -3.31168e-08) 12798
(0.475424 0.0460233 -5.0811e-09) 13196
(0.495327 0.0372175 -1.45746e-08) 12399
(0.478201 0.0450976 6.93531e-20) 12996
(0.488502 0.0469046 -4.36814e-07) 13198
(0.480376 0.0511118 -2.17845e-09) 13596
(0.486636 0.0449652 1.34943e-06) 12997
(0.492949 0.026679 5.56569e-10) 11198
(0.469071 0.0438584 1.52475e-08) 12995
(0.456396 0.0428005 3.53838e-10) 12792
(0.484173 0.0388576 -5.58646e-08) 12597
(0.462755 0.0477975 1.33649e-09) 13193
(0.485539 0.0464277 -1.16012e-19) 13197
(0.489407 0.0464638 1.63822e-19) 13198
(0.49772 0.0335439 -3.11061e-08) 11999
(0.470941 0.0445108 7.58709e-06) 12995
(0.479431 0.0502002 -1.09828e-19) 13396
(0.484259 0.0322088 -7.70897e-20) 11797
(0.496947 0.0451314 1.78391e-08) 12999
(0.461393 0.0432557 -4.82612e-08) 12993
(0.491295 0.0349388 5.2544e-08) 12198
(0.484463 0.0410233 -1.11205e-08) 12797
(0.434844 0.0416513 2.55531e-20) 12789
(0.494196 0.0323105 -1.96055e-08) 11799
(0.49785 0.040365 -1.84503e-09) 12599
(0.498504 0.033766 1.73445e-07) 11999
(0.486604 0.0405539 -1.0673e-07) 12597
(0.440228 0.0541279 6.94993e-09) 13790
(0.488239 0.0510245 -2.25865e-09) 13598
(0.48451 0.0362607 9.45858e-08) 12197
(0.466658 0.0450373 -2.07525e-19) 12994
(0.482658 0.0432875 -7.33051e-09) 12997
(0.443767 0.04656 1.57281e-07) 13190
(0.480776 0.0383479 -7.55844e-08) 12396
(0.464304 0.0379049 -3.84346e-08) 12394
(0.471532 0.0400303 -1.61565e-07) 12595
(0.496127 0.0471317 1.1024e-08) 13199
(0.499959 0.0371996 7.47258e-08) 12399
(0.467588 0.0345553 -8.81778e-20) 11994
(0.481713 0.0362021 -1.36163e-09) 12197
(0.48709 0.0337225 3.92661e-20) 11997
(0.49511 0.0424964 -5.73614e-07) 12799
(0.483157 0.0531771 -4.9593e-08) 13597
(0.495442 0.0473975 0) 13199
(0.492781 0.0351743 -3.16322e-08) 12198
(0.478159 0.0300846 1.83874e-08) 11596
(0.482957 0.0438073 2.66883e-10) 12997
(0.471305 0.041689 -1.43931e-19) 12795
(0.48112 0.0435814 -8.89908e-20) 12997
(0.483245 0.0383388 -2.2569e-10) 12397
(0.496301 0.0408169 -1.30053e-08) 12599
(0.491078 0.0459558 -8.96899e-09) 13198
(0.488978 0.0380569 -1.25453e-19) 12398
(0.476635 0.0345377 1.76697e-08) 11996
(0.469524 0.034268 -9.50319e-08) 11995
(0.481821 0.0363458 -5.349e-09) 12197
(0.474007 0.0355415 -2.12684e-09) 12195
(0.494215 0.029604 -1.86366e-08) 11599
(0.496974 0.0272355 2.32417e-07) 11199
(0.484209 0.0404505 -3.81555e-09) 12597
(0.493716 0.0487738 3.43793e-08) 13399
(0.473255 0.0316026 1.03626e-09) 11795
(0.475127 0.0459151 1.54294e-10) 13196
(0.467925 0.0376282 5.17855e-08) 12394
(0.474085 0.048238 1.15318e-06) 13395
(0.498082 0.0367472 7.55939e-09) 12399
(0.476964 0.0400878 1.29078e-10) 12596
(0.443622 0.041729 -7.24161e-08) 12790
(0.479449 0.0356194 1.02684e-08) 12196
(0.475194 0.0474318 2.30148e-09) 13196
(0.479863 0.0469667 -2.12522e-19) 13196
(0.486731 0.0394622 -2.29369e-19) 12597
(0.433459 0.0538469 -4.97099e-08) 13788
(0.463658 0.0406419 -1.68086e-08) 12594
(0.485259 0.0348843 -1.07258e-05) 12197
(0.490955 0.0407647 -1.32607e-19) 12598
(0.428677 0.0450187 5.67715e-08) 12988
(0.492903 0.0270332 5.71653e-08) 11198
(0.443885 0.0455128 -9.84625e-09) 12990
(0.482817 0.0442486 -5.56364e-20) 12997
(0.4582 0.0456848 -3.01275e-19) 13193
(0.468632 0.0389368 -1.86774e-19) 12594
(0.48469 0.0496238 0) 13397
(0.471575 0.0508636 -1.88027e-19) 13395
(0.488293 0.0567576 -6.38067e-20) 13798
(0.469424 0.0391428 -1.06666e-07) 12595
(0.487781 0.0402144 0) 12598
(0.455886 0.0320961 0) 11792
(0.470505 0.0344159 -1.88715e-19) 11995
(0.496952 0.030818 -1.13835e-19) 11599
(0.481662 0.0413856 7.17525e-09) 12797
(0.458006 0.0435292 -2.06687e-19) 12993
(0.48214 0.035142 -3.8771e-08) 12197
(0.427656 0.0419353 -9.84702e-08) 12787
(0.478181 0.0362913 -7.11522e-20) 12196
(0.45132 0.0408149 4.1961e-06) 12592
(0.462958 0.0314509 -7.82841e-09) 11794
(0.459394 0.0725093 6.70036e-09) 14793
(0.499716 0.0334243 -8.38851e-09) 11999
(0.438857 0.0418092 -2.6396e-19) 12789
(0.47235 0.0476289 0) 13195
(0.495316 0.033753 -4.24261e-20) 11999
(0.44711 0.0406259 9.26073e-10) 12591
(0.434834 0.0374929 -9.49187e-08) 12389
(0.457733 0.0395673 -2.52678e-19) 12593
(0.456949 0.0355489 1.93204e-09) 12193
(0.434987 0.0365286 -1.89017e-19) 12189
(0.445369 0.0381422 6.96649e-11) 12391
(0.493709 0.0380264 2.76159e-07) 12399
(0.492265 0.038079 -1.82475e-19) 12398
(0.495227 0.0341193 1.35965e-08) 11999
(0.454307 0.0421813 -5.41041e-10) 12792
(0.499172 0.0445677 -4.44881e-09) 12999
(0.474174 0.050905 -1.42541e-19) 13395
(0.497724 0.0357961 4.66616e-08) 12199
(0.473366 0.0540139 -2.01922e-07) 13795
(0.499814 0.0289475 -1.28541e-19) 11399
(0.497984 0.0259571 1.2879e-08) 10999
(0.455277 0.0478133 3.28125e-08) 13192
(0.493704 0.0572815 2.06873e-07) 13999
(0.493879 0.0308282 -1.79193e-09) 11599
(0.445776 0.0436565 4.48245e-09) 12991
(0.499468 0.0254113 1.36636e-08) 10999
(0.493288 0.0500484 -2.06005e-19) 13398
(0.489454 0.0436145 4.32202e-10) 12998
(0.478051 0.0431386 -4.574e-07) 12796
(0.497043 0.0237842 -4.35005e-20) 10799
(0.478945 0.0438395 -7.73721e-20) 12996
(0.469486 0.0461885 -1.43006e-08) 13195
(0.479052 0.042203 -1.96089e-07) 12796
(0.481058 0.0282432 4.77176e-09) 11396
(0.438026 0.038875 2.40059e-08) 12589
(0.483287 0.0351851 -1.43147e-07) 12197
(0.493966 0.0306 2.22676e-08) 11599
(0.46829 0.0358023 1.58286e-07) 12194
(0.484838 0.0317991 -4.41117e-09) 11797
(0.493811 0.0365276 -2.51439e-08) 12199
(0.480463 0.0313631 -1.18558e-19) 11796
(0.498268 0.0286434 -1.18331e-19) 11399
(0.489638 0.0283531 3.88544e-08) 11398
(0.471006 0.0459105 -9.00411e-10) 13195
(0.479915 0.0354181 -4.46356e-09) 12196
(0.44505 0.0403414 -3.18252e-07) 12590
(0.484847 0.0486825 0) 13397
(0.497445 0.046882 -1.82467e-19) 13199
(0.463948 0.0503145 -1.15596e-09) 13394
(0.450722 0.0362487 -2.51436e-19) 12191
(0.488234 0.0322715 3.37097e-07) 11798
(0.496671 0.0332095 -2.0168e-08) 11999
(0.476243 0.0408361 1.16473e-09) 12596
(0.468794 0.0326282 1.19182e-06) 11794
(0.493235 0.0291387 5.503e-08) 11398
(0.491429 0.047077 -2.39888e-08) 13198
(0.486933 0.0390779 2.2456e-08) 12597
(0.473688 0.036479 -5.92823e-07) 12195
(0.471515 0.0327852 9.50229e-09) 11795
(0.47074 0.0380698 6.70173e-08) 12395
(0.471973 0.0343118 -2.49467e-08) 11995
(0.450202 0.0356162 -7.91677e-20) 12191
(0.473513 0.0287343 -1.05985e-08) 11395
(0.49103 0.03738 3.02446e-09) 12398
(0.495519 0.0301024 -1.54478e-08) 11599
(0.485813 0.0337586 -1.37519e-08) 11997
(0.497665 0.0122579 1.06963e-08) 8399
(0.471625 0.0407657 -1.193e-07) 12595
(0.467892 0.040754 -1.84859e-19) 12594
(0.443243 0.0285577 -1.58125e-08) 11390
(0.492215 0.0413304 -1.09417e-07) 12798
(0.499602 0.040767 -6.90114e-20) 12599
(0.46368 0.0585034 5.94941e-08) 13994
(0.484754 0.0450838 -1.40528e-19) 12997
(0.45699 0.0498713 -1.32159e-06) 13393
(0.499621 0.034108 -7.64764e-07) 11999
(0.434875 0.042761 -2.08445e-20) 12789
(0.49833 0.0280683 -1.13925e-09) 11399
(0.482311 0.0392855 -1.74306e-08) 12597
(0.489954 0.047431 5.89358e-07) 13198
(0.476748 0.0420028 -3.00873e-08) 12796
(0.467377 0.0341514 -1.4271e-19) 11994
(0.492906 0.0490902 -9.74976e-20) 13398
(0.442034 0.0374481 1.43133e-08) 12390
(0.480338 0.0379108 1.44031e-06) 12396
(0.492589 0.0293371 -5.52814e-09) 11398
(0.476593 0.0384793 -3.50672e-08) 12396
(0.499664 0.0378905 -1.62603e-07) 12399
(0.495225 0.0277816 1.20278e-06) 11199
(0.454728 0.043803 1.26437e-08) 12992
(0.484201 0.0275544 -3.51513e-08) 11197
(0.465454 0.0319033 -7.75953e-10) 11794
(0.450232 0.0359237 9.13702e-09) 12191
(0.453239 0.0384665 6.24133e-08) 12392
(0.492697 0.0299717 -1.7105e-09) 11598
(0.471691 0.0271745 1.11935e-10) 11195
(0.484087 0.0184573 -2.02731e-09) 9797
(0.487141 0.0485155 2.64371e-08) 13397
(0.447467 0.035821 -2.09543e-10) 12191
(0.491748 0.0272725 8.31001e-10) 11198
(0.465332 0.0392019 1.00983e-09) 12594
(0.456144 0.0323207 -8.28257e-10) 11792
(0.49629 0.021223 3.38994e-07) 10399
(0.481566 0.0481444 -3.39644e-09) 13197
(0.494714 0.0271901 4.75765e-09) 11199
(0.449758 0.0428452 -1.50053e-07) 12791
(0.473428 0.0358344 6.4211e-08) 12195
(0.442861 0.0276194 2.18577e-07) 11190
(0.45821 0.0433448 -5.67771e-10) 12993
(0.462631 0.0358368 -3.24477e-09) 12193
(0.496305 0.0388138 -2.25995e-08) 12599
(0.471967 0.0459069 -5.4922e-08) 13195
(0.49726 0.0213323 -9.78898e-10) 10399
(0.496384 0.0471334 1.66442e-07) 13199
(0.430131 0.0500474 -1.52071e-08) 13388
(0.454788 0.0282649 -6.69954e-20) 11392
(0.471493 0.0312041 -1.31952e-19) 11795
(0.457422 0.0321576 6.07514e-09) 11793
(0.463431 0.0298331 -5.38756e-08) 11594
(0.494573 0.0415511 5.28859e-20) 12799
(0.46423 0.0408543 3.85387e-12) 12594
(0.446235 0.0422009 -6.12975e-09) 12791
(0.49892 0.0184408 -1.93418e-08) 9799
(0.43826 0.0423025 0) 12789
(0.473512 0.0495448 -1.45104e-09) 13395
(0.47279 0.0424094 5.74464e-08) 12795
(0.422323 0.0425993 -1.75525e-19) 12786
(0.467092 0.0300636 -4.89071e-20) 11594
(0.486247 0.0320401 -5.63825e-09) 11797
(0.441894 0.0426241 -1.89045e-19) 12790
(0.45735 0.0341691 3.0279e-08) 11993
(0.470968 0.0305741 1.40435e-09) 11595
(0.442812 0.0358325 -1.32184e-19) 12190
(0.477964 0.0274038 1.16566e-09) 11196
(0.441829 0.037104 4.36765e-09) 12390
(0.455444 0.0317097 1.34205e-07) 11792
(0.474909 0.0351266 -6.66056e-20) 12196
(0.494306 0.0226988 4.60869e-08) 10599
(0.465339 0.0420429 4.86484e-08) 12794
(0.436716 0.0388449 1.80889e-08) 12589
(0.473181 0.0347819 1.9156e-08) 12195
(0.492195 0.0494003 -2.04148e-19) 13398
(0.408489 0.0404021 9.65487e-08) 12584
(0.455796 0.0537671 -1.09697e-08) 13592
(0.433332 0.0445031 0) 12988
(0.494745 0.0238302 2.2704e-08) 10799
(0.485847 0.0358672 -6.05003e-08) 12197
(0.490061 0.0472375 4.0703e-09) 13198
(0.489621 0.023892 -4.47064e-09) 10798
(0.432859 0.04029 -3.67576e-19) 12588
(0.476877 0.0324098 9.38686e-08) 11796
(0.414543 0.0412965 -1.49598e-19) 12785
(0.495133 0.0283296 -2.06856e-10) 11399
(0.487268 0.0269306 -1.78226e-08) 11197
(0.489703 0.0255313 1.16222e-08) 10998
(0.483079 0.0272856 1.54934e-08) 11197
(0.479175 0.0364254 -2.50491e-09) 12196
(0.493528 0.0306761 3.18289e-20) 11598
(0.466505 0.036024 1.91536e-07) 12194
(0.439508 0.0509175 -4.08246e-10) 13390
(0.47901 0.0218581 4.78764e-08) 10396
(0.49699 0.0296407 7.51825e-09) 11599
(0.452102 0.0413806 2.97234e-08) 12792
(0.440786 0.0313869 -1.43356e-19) 11790
(0.474538 0.0412577 3.12947e-20) 12795
(0.428694 0.0421661 9.9423e-08) 12788
(0.476451 0.0504216 -9.0336e-11) 13396
(0.497045 0.0435618 1.86717e-08) 12999
(0.443033 0.0387503 6.34582e-08) 12590
(0.491864 0.0263532 1.88759e-09) 11198
(0.449843 0.0314658 2.55975e-07) 11791
(0.453636 0.0506668 -1.52849e-20) 13392
(0.464452 0.0311324 -1.45564e-19) 11794
(0.487549 0.0286318 7.69787e-11) 11398
(0.481575 0.0285534 -7.75169e-09) 11397
(0.473617 0.0242217 -1.71329e-09) 10795
(0.495639 0.0215059 1.16286e-07) 10399
(0.451648 0.0339075 -5.54139e-09) 11992
(0.489388 0.0490489 1.0176e-08) 13398
(0.417802 0.0400191 -4.77966e-08) 12586
(0.47596 0.0274871 -6.0167e-08) 11196
(0.449341 0.0485585 -3.99966e-08) 13391
(0.488039 0.0257224 3.66576e-08) 10998
(0.492947 0.0147575 -5.25178e-20) 8998
(0.451545 0.0289174 -4.99571e-08) 11392
(0.470084 0.0280518 0) 11395
(0.494887 0.0187666 -1.69428e-08) 9799
(0.482455 0.0374165 -9.49429e-09) 12397
(0.497707 0.0477486 -5.62055e-08) 13199
(0.476874 0.0278431 4.38532e-09) 11396
(0.491726 0.0197748 -1.17938e-20) 9998
(0.445418 0.0387195 4.20569e-09) 12591
(0.450642 0.0446466 -2.96707e-08) 12991
(0.471279 0.026492 3.42359e-20) 11195
(0.446105 0.0453487 2.37888e-09) 12991
(0.477597 0.0309375 5.49007e-08) 11596
(0.486348 0.0292839 -3.73338e-08) 11397
(0.48983 0.0220913 -2.86338e-09) 10398
(0.450702 0.0165025 -6.55124e-09) 9391
(0.477868 0.0300668 -5.07636e-08) 11596
(0.498209 0.0499288 1.34654e-09) 13399
(0.45935 0.0364798 -4.95954e-08) 12193
(0.421054 0.0395049 3.06077e-07) 12586
(0.475878 0.0226293 4.77524e-09) 10596
(0.452134 0.045832 -5.95988e-10) 13192
(0.480067 0.0248515 -9.3189e-08) 10796
(0.497541 0.0256798 1.7048e-07) 10999
(0.471199 0.0350979 -1.24375e-19) 12195
(0.467686 0.0380422 -8.9691e-08) 12394
(0.46427 0.0288299 1.37096e-06) 11394
(0.452893 0.0538654 -1.85757e-10) 13792
(0.485187 0.0385338 4.40366e-20) 12397
(0.479178 0.0268844 -8.87409e-09) 11196
(0.488856 0.0250966 -9.06822e-08) 10998
(0.437568 0.0358403 -2.137e-19) 12189
(0.449727 0.0368726 2.11344e-09) 12391
(0.496634 0.0351897 3.37938e-09) 12199
(0.460532 0.032503 6.03778e-08) 11793
(0.461173 0.0312973 -4.30781e-09) 11793
(0.476437 0.0218701 -6.66786e-20) 10396
(0.429685 0.0319055 -3.14491e-09) 11788
(0.475841 0.0324035 -3.51848e-20) 11796
(0.451315 0.0300628 5.06444e-08) 11592
(0.499076 0.0221224 3.22002e-09) 10399
(0.486137 0.0223072 3.29894e-10) 10397
(0.493299 0.0373781 -6.18619e-08) 12398
(0.458047 0.0345933 1.23939e-08) 11993
(0.439699 0.0363455 -5.43468e-20) 12190
(0.494772 0.0189265 -3.50755e-09) 9799
(0.459261 0.0170923 -4.42021e-08) 9593
(0.484451 0.0250516 -3.15835e-08) 10997
(0.479757 0.0228204 1.2176e-08) 10596
(0.489623 0.0407896 -1.09897e-20) 12598
(0.471952 0.0516613 -1.88759e-08) 13595
(0.433295 0.0397655 2.54085e-08) 12588
(0.399276 0.0395845 4.874e-09) 12582
(0.496392 0.0288127 -1.30882e-09) 11399
(0.466567 0.0401814 -9.78553e-09) 12594
(0.491447 0.0268395 1.9005e-07) 11198
(0.484303 0.0298321 -8.3252e-20) 11597
(0.477798 0.0197818 -1.00002e-07) 9996
(0.485289 0.0282567 7.64929e-08) 11397
(0.448929 0.0344705 -1.4137e-19) 11991
(0.456221 0.0318658 2.1572e-08) 11792
(0.48808 0.0472202 3.46433e-109) 13198
(0.489619 0.0288526 2.04111e-08) 11398
(0.432407 0.0482155 3.45523e-08) 13188
(0.463852 0.0312355 -1.73455e-07) 11794
(0.439006 0.0462996 2.7244e-10) 13189
(0.479623 0.0473095 -3.25941e-08) 13196
(0.416706 0.0369431 -2.2757e-19) 12385
(0.462603 0.0311201 2.96494e-10) 11793
(0.498202 0.0176116 -2.11879e-20) 9599
(0.490873 0.0220757 3.48082e-08) 10398
(0.482319 0.0277833 1.11262e-08) 11197
(0.482591 0.0262127 -7.59981e-10) 10997
(0.424749 0.035027 -4.53179e-20) 12187
(0.476867 0.0271562 -7.48563e-06) 11196
(0.499887 0.0287523 8.89862e-07) 11399
(0.48828 0.0361182 -1.68444e-09) 12198
(0.442553 0.0422319 2.47514e-20) 12790
(0.452156 0.0402033 -1.70604e-19) 12592
(0.491678 0.0256024 7.76312e-08) 10998
(0.484996 0.0357104 1.7761e-08) 12197
(0.478699 0.0238236 1.99363e-08) 10796
(0.478145 0.0247927 -1.30536e-07) 10796
(0.409502 0.0509789 5.93584e-08) 13584
(0.439983 0.033556 9.99858e-08) 11990
(0.455603 0.0408707 -1.44615e-19) 12592
(0.439214 0.0424803 -4.60892e-33) 12789
(0.497644 0.0284254 -1.89053e-10) 11399
(0.469627 0.0355078 -4.20819e-21) 12195
(0.448285 0.0400226 3.00682e-09) 12591
(0.494442 0.0398933 -3.6562e-09) 12599
(0.484508 0.0303383 -2.1707e-09) 11597
(0.492571 0.025366 3.26101e-08) 10998
(0.498937 0.0314295 -1.37923e-21) 11799
(0.498967 0.0187132 -2.8161e-08) 9799
(0.451122 0.0390062 -1.17076e-08) 12592
(0.483211 0.0575817 3.80345e-135) 13997
(0.477361 0.0272786 -1.33666e-19) 11196
(0.43492 0.0417441 -1.04683e-19) 12789
(0.427276 0.0359008 -1.7209e-19) 12187
(0.443102 0.0322824 3.54534e-10) 11790
(0.475994 0.0349258 -6.63106e-20) 12196
(0.432513 0.0281551 1.41737e-08) 11388
(0.478613 0.0355614 5.13771e-08) 12196
(0.438065 0.0328309 -2.14372e-19) 11989
(0.455761 0.0329856 9.64383e-09) 11992
(0.471295 0.0264663 -1.536e-08) 11195
(0.455678 0.03871 -6.37852e-20) 12592
(0.441161 0.0348306 2.28726e-08) 12190
(0.470628 0.032493 1.63484e-08) 11795
(0.486232 0.0159667 6.23548e-09) 9197
(0.478701 0.0410472 -1.08847e-19) 12796
(0.399222 0.0345231 2.56483e-08) 11982
(0.490135 0.02238 -3.8326e-08) 10598
(0.473505 0.032407 -1.57417e-09) 11795
(0.483756 0.0283847 4.22883e-10) 11397
(0.427286 0.0331005 7.50132e-09) 11987
(0.489685 0.0114128 4.42965e-09) 7998
(0.487112 0.0269426 2.32917e-08) 11197
(0.466234 0.048462 -3.61437e-08) 13394
(0.461974 0.0302322 1.41333e-08) 11593
(0.400642 0.0378901 -4.18138e-10) 12382
(0.495614 0.0182035 1.92265e-10) 9799
(0.474465 0.014265 0) 8795
(0.474229 0.0254501 -2.50694e-08) 10995
(0.492245 0.0168847 2.62005e-08) 9398
(0.490127 0.0224377 4.47356e-10) 10598
(0.486999 0.0211837 -4.18825e-09) 10397
(0.490271 0.0265065 -8.64932e-09) 11198
(0.486985 0.0271685 4.27033e-09) 11197
(0.433175 0.040492 -1.05773e-07) 12588
(0.491224 0.0343011 -1.72962e-07) 11998
(0.49367 0.0226791 -1.45576e-07) 10599
(0.420358 0.0357876 1.81993e-09) 12186
(0.494627 0.0105288 -7.52713e-09) 7799
(0.42909 0.0385478 -1.04915e-08) 12388
(0.488219 0.0281028 -1.10758e-07) 11398
(0.470883 0.0250459 1.11687e-07) 10995
(0.493112 0.0189809 -6.68172e-08) 9998
(0.457009 0.0459651 -6.23249e-20) 13193
(0.490751 0.0256152 0) 10998
(0.454549 0.0364168 -1.81655e-08) 12192
(0.492535 0.0307585 0) 11598
(0.450621 0.0313886 6.11683e-08) 11791
(0.488397 0.019782 3.39246e-08) 9998
(0.495722 0.0156752 -8.5455e-09) 9199
(0.486514 0.0274955 1.61012e-08) 11197
(0.439956 0.0304662 -2.63652e-08) 11590
(0.469429 0.0294738 1.51819e-07) 11595
(0.490505 0.0214015 -4.16216e-08) 10398
(0.498591 0.0228555 1.23459e-08) 10599
(0.495649 0.0179619 -2.48583e-08) 9799
(0.473474 0.025714 -6.07673e-20) 10995
(0.496857 0.0229117 -3.05701e-08) 10599
(0.490923 0.021636 -6.1042e-20) 10398
(0.477806 0.0292055 -2.04168e-08) 11396
(0.492652 0.016266 -6.8815e-08) 9398
(0.426795 0.0377702 4.13728e-09) 12387
(0.496697 0.0156031 -2.06965e-09) 9199
(0.493591 0.0307805 1.90375e-09) 11598
(0.410402 0.0427003 -4.14622e-08) 12784
(0.474401 0.0323585 1.51289e-08) 11795
(0.499689 0.0295438 2.10535e-08) 11599
(0.488696 0.0271778 8.10386e-08) 11198
(0.490503 0.0216535 6.96246e-09) 10398
(0.488956 0.0263126 -1.79763e-09) 10998
(0.467302 0.0414859 5.49265e-08) 12794
(0.407053 0.0419849 -1.78181e-08) 12784
(0.459497 0.0294891 -1.33084e-08) 11593
(0.473661 0.0402519 -1.77755e-06) 12595
(0.49096 0.0284904 1.41521e-08) 11398
(0.43162 0.0436788 1.28608e-07) 12988
(0.493193 0.020665 -6.1527e-20) 10198
(0.482224 0.0381176 1.12393e-10) 12397
(0.463839 0.0252717 -2.5995e-08) 10994
(0.42558 0.0430401 -3.48409e-09) 12787
(0.487232 0.0230711 -5.89172e-20) 10597
(0.499396 0.0160468 2.06625e-08) 9199
(0.493299 0.0193 -6.13411e-09) 9998
(0.48838 0.0505598 6.01813e-20) 13398
(0.474978 0.0196766 1.32974e-07) 9996
(0.474202 0.0480669 -8.93689e-09) 13195
(0.486718 0.0231125 -1.63133e-10) 10597
(0.480632 0.0321652 -1.60853e-10) 11796
(0.495173 0.02405 -1.80979e-08) 10799
(0.466633 0.0248822 -1.41885e-08) 10794
(0.472515 0.0255851 9.8833e-10) 10995
(0.415026 0.0375045 -1.73656e-19) 12385
(0.479871 0.0276781 -2.2278e-08) 11196
(0.490694 0.040302 7.47721e-08) 12598
(0.479745 0.0380817 0) 12396
(0.492147 0.0204246 9.434e-09) 10198
(0.425508 0.0406354 5.1597e-08) 12587
(0.480309 0.0206581 3.46473e-09) 10196
(0.475336 0.0162014 2.24476e-20) 9396
(0.461169 0.0343217 -5.30597e-07) 11993
(0.473847 0.0258927 5.41065e-09) 10995
(0.498297 0.0271505 -2.18691e-20) 11199
(0.418378 0.0340375 5.01366e-09) 11986
(0.489482 0.0222815 -1.72405e-08) 10398
(0.479824 0.0199163 -3.90157e-09) 9996
(0.483375 0.0253122 -7.98131e-20) 10997
(0.442616 0.0455552 0) 12990
(0.453331 0.0263582 -1.28788e-19) 11192
(0.490895 0.0156641 -7.89576e-20) 9198
(0.485876 0.012927 -1.70184e-08) 8397
(0.48292 0.0119382 -1.36902e-08) 8197
(0.41764 0.0339102 -3.60713e-09) 11986
(0.49678 0.0154431 1.00393e-08) 9199
(0.49439 0.0255156 -4.76456e-08) 10999
(0.484377 0.0238189 -5.73882e-20) 10797
(0.495491 0.0161156 7.23638e-08) 9399
(0.432899 0.0422367 3.04486e-07) 12788
(0.497927 0.0147739 -1.00332e-08) 8999
(0.453628 0.0402676 -2.96123e-20) 12592
(0.429423 0.0327874 3.35295e-09) 11788
(0.47831 0.0488379 -2.00854e-19) 13396
(0.443735 0.0296121 -9.24521e-09) 11590
(0.480635 0.0388958 -1.62225e-19) 12596
(0.468638 0.0490947 -1.64941e-08) 13394
(0.451833 0.0373458 2.73024e-08) 12392
(0.417386 0.0391675 -1.25378e-07) 12586
(0.489396 0.0247765 1.79368e-07) 10798
(0.496742 0.0186438 1.89385e-20) 9799
(0.417481 0.0468649 -2.46966e-09) 13186
(0.491873 0.0097521 -2.43061e-08) 7398
(0.456325 0.0399873 0) 12592
(0.457169 0.0346226 -1.17787e-08) 11993
(0.474377 0.0276799 2.37179e-09) 11195
(0.499864 0.0182582 6.17277e-09) 9799
(0.479602 0.0250135 -8.30228e-10) 10996
(0.452301 0.0347859 2.86302e-09) 12192
(0.458642 0.0231316 1.46284e-08) 10593
(0.473773 0.0417089 -3.42392e-20) 12795
(0.429155 0.0450243 -5.50417e-20) 12988
(0.485516 0.024218 3.70158e-10) 10797
(0.439566 0.0481438 -2.2634e-19) 13190
(0.492479 0.0204919 2.83825e-08) 10198
(0.415336 0.0331019 -1.09837e-07) 11985
(0.464467 0.03516 -1.28647e-19) 12194
(0.480349 0.0223366 2.67056e-10) 10396
(0.492334 0.0297865 2.1191e-07) 11598
(0.443861 0.0392104 -3.91791e-08) 12590
(0.483356 0.0200167 -2.97487e-10) 9997
(0.464705 0.0226391 3.40347e-10) 10594
(0.492415 0.018528 -5.59896e-20) 9798
(0.436462 0.0405397 -1.30238e-19) 12589
(0.487748 0.0359312 0) 12198
(0.452854 0.0283101 -2.30869e-08) 11392
(0.485722 0.0097976 -7.13474e-09) 7397
(0.473701 0.0266883 -3.64958e-09) 11195
(0.454785 0.023761 -1.79095e-10) 10792
(0.492752 0.0386299 -1.15157e-19) 12398
(0.491967 0.0192304 8.95121e-09) 9998
(0.494135 0.04308 -2.11692e-07) 12799
(0.482877 0.0494001 5.49442e-20) 13397
(0.452172 0.0291683 -2.59183e-08) 11392
(0.490381 0.0417011 6.62367e-08) 12798
(0.453779 0.0232319 1.96404e-09) 10592
(0.412294 0.0428096 -2.00877e-08) 12785
(0.493238 0.0165719 -6.99011e-20) 9398
(0.499982 0.0218538 -3.79442e-20) 10399
(0.496633 0.0314701 5.61507e-10) 11799
(0.49046 0.0303908 -3.52601e-07) 11598
(0.419154 0.027842 7.60712e-08) 11386
(0.487162 0.0245559 1.19762e-09) 10797
(0.420622 0.0358273 -3.17011e-08) 12186
(0.485555 0.0218647 -1.30276e-09) 10397
(0.482483 0.0269032 7.20074e-08) 11197
(0.487854 0.0208562 -3.95329e-10) 10198
(0.434058 0.0417772 -1.30364e-07) 12789
(0.46138 0.0277909 -1.5064e-09) 11193
(0.482186 0.0254746 1.74376e-08) 10997
(0.49717 0.02232 2.04549e-09) 10399
(0.481217 0.048972 0) 13397
(0.488549 0.0478868 4.08223e-20) 13198
(0.441091 0.0403904 -1.74686e-19) 12590
(0.472954 0.0247005 1.2559e-09) 10795
(0.4805 0.0266531 0) 11196
(0.444205 0.032663 7.97823e-08) 11790
(0.473494 0.0286818 -2.74619e-08) 11395
(0.439798 0.035271 -3.87754e-09) 12190
(0.476502 0.0182245 -2.78564e-08) 9796
(0.420346 0.0416613 -9.3771e-20) 12786
(0.491995 0.0180261 -8.73283e-09) 9798
(0.407029 0.0356819 -1.39552e-19) 12184
(0.46199 0.0316792 -9.07543e-09) 11793
(0.474862 0.0361551 -2.67701e-21) 12195
(0.448568 0.0308811 3.41812e-08) 11591
(0.457349 0.0294746 -5.58679e-09) 11593
(0.475949 0.027836 -1.26066e-08) 11396
(0.448431 0.0281405 -1.93892e-08) 11391
(0.443039 0.0282331 3.41926e-08) 11390
(0.488216 0.0257311 -6.03549e-08) 10998
(0.431566 0.0396058 -1.4688e-08) 12588
(0.498405 0.0186425 -1.02802e-19) 9799
(0.4814 0.025014 6.98154e-08) 10997
(0.483385 0.0274089 5.92838e-20) 11197
(0.426137 0.0451984 7.19611e-20) 12987
(0.439563 0.0481368 -1.582e-19) 13190
(0.490488 0.0290674 8.55981e-08) 11398
(0.447185 0.0249564 -1.70012e-08) 10991
(0.424084 0.0313377 -2.92228e-19) 11787
(0.482587 0.0152412 -3.5665e-20) 9197
(0.469491 0.0271263 -3.16944e-09) 11195
(0.475502 0.00900962 -2.59282e-09) 7196
(0.497491 0.0257295 -4.76085e-10) 10999
(0.478102 0.0230902 -2.73901e-09) 10596
(0.449117 0.0484736 6.74138e-08) 13391
(0.420397 0.0332836 -2.04895e-09) 11986
(0.42592 0.0380962 -2.32449e-09) 12387
(0.48709 0.0538671 -2.40154e-07) 13797
(0.487399 0.022899 -9.39681e-08) 10598
(0.48458 0.018419 -1.69102e-09) 9797
(0.492936 0.0265272 -6.95373e-47) 11198
(0.486652 0.0261775 0) 10997
(0.468451 0.0127855 -1.39699e-10) 8394
(0.469793 0.0325509 0) 11795
(0.41513 0.0370744 -1.90796e-07) 12385
(0.422437 0.0451304 3.19425e-20) 12986
(0.490608 0.0191594 4.70411e-09) 9998
(0.448709 0.0430277 1.11738e-07) 12791
(0.471756 0.0244036 1.01789e-08) 10795
(0.476927 0.0267976 9.02697e-08) 11196
(0.498639 0.0191434 2.91492e-09) 9999
(0.483261 0.0317183 7.92149e-20) 11797
(0.487962 0.026159 7.18539e-08) 10998
(0.494161 0.00893044 -1.2429e-10) 7199
(0.458632 0.0247965 -7.09244e-20) 10793
(0.47734 0.0353469 3.40495e-08) 12196
(0.493724 0.0160238 -4.33127e-09) 9199
(0.460142 0.0446478 -9.24753e-20) 12993
(0.468325 0.0252596 -1.27354e-19) 10994
(0.458436 0.0411701 -5.94123e-08) 12793
(0.440247 0.0478201 0) 13190
(0.472785 0.0241486 3.65817e-07) 10795
(0.49354 0.0108335 -1.45696e-21) 7798
(0.468194 0.0265966 -2.35223e-07) 11194
(0.449619 0.0303888 3.0096e-08) 11591
(0.48353 0.0178881 2.89676e-08) 9597
(0.489863 0.025401 4.36245e-08) 10998
(0.473397 0.0375884 1.76462e-07) 12395
(0.392132 0.0405452 4.28918e-08) 12581
(0.485536 0.0305577 1.14943e-07) 11597
(0.429575 0.0306476 3.9039e-08) 11588
(0.477123 0.0227701 4.00685e-10) 10596
(0.445517 0.0288886 -2.03831e-09) 11391
(0.456331 0.0290675 -6.04345e-10) 11392
(0.444454 0.0397947 -2.89325e-19) 12590
(0.48524 0.0327867 -6.61869e-09) 11797
(0.499114 0.017744 7.18367e-07) 9599
(0.466902 0.0178618 1.77995e-09) 9594
(0.497405 0.015237 9.51647e-08) 9199
(0.468327 0.0233486 4.29985e-09) 10594
(0.4994 0.0189133 1.64878e-08) 9799
(0.479433 0.0241428 -5.95233e-20) 10796
(0.489769 0.0126519 1.02664e-09) 8398
(0.413561 0.0354798 2.49191e-10) 12185
(0.476663 0.013021 -4.79346e-10) 8596
(0.472811 0.0251276 -2.66481e-08) 10995
(0.498716 0.0241994 3.42551e-06) 10799
(0.468478 0.0327539 -1.73146e-19) 11794
(0.400511 0.0372941 -1.51411e-19) 12382
(0.434414 0.0409638 -1.88967e-19) 12789
(0.450392 0.025357 -3.37741e-08) 10991
(0.476454 0.0132944 -3.23118e-20) 8596
(0.430938 0.0468599 -8.35881e-10) 13188
(0.489567 0.0376721 -1.0007e-07) 12398
(0.488431 0.0308235 5.42826e-08) 11598
(0.494299 0.0168902 -4.61177e-20) 9399
(0.458111 0.0421754 -2.46136e-07) 12793
(0.432109 0.0311287 4.53407e-11) 11788
(0.477919 0.0223447 -4.2925e-10) 10596
(0.47399 0.0239637 6.14848e-08) 10795
(0.470787 0.0264118 -1.64335e-08) 11195
(0.485365 0.0278685 -9.50583e-08) 11397
(0.415623 0.0359693 1.32718e-06) 12185
(0.476631 0.021229 -3.48224e-08) 10396
(0.452964 0.0156976 2.73834e-09) 9192
(0.466736 0.0280671 2.41643e-20) 11394
(0.468371 0.0216648 4.78774e-09) 10394
(0.420887 0.0412927 1.81266e-07) 12786
(0.490221 0.0328361 2.60558e-08) 11998
(0.466607 0.0207809 -1.21503e-19) 10194
(0.480083 0.0165164 -5.1547e-20) 9396
(0.488327 0.0162418 -6.80105e-20) 9398
(0.436486 0.0264754 -3.49754e-10) 11189
(0.478776 0.0163984 -1.63517e-10) 9396
(0.407288 0.0465517 -3.49576e-07) 13184
(0.445366 0.0177313 8.53008e-10) 9591
(0.47057 0.0368358 -5.87441e-09) 12395