/*--------------------------------*- C++ -*----------------------------------*\
| =========                 |                                                 |
| \\      /  F ield         | OpenFOAM: The Open Source CFD Toolbox           |
|  \\    /   O peration     | Version:  1.7.0                                 |
|   \\  /    A nd           | Web:      www.OpenFOAM.com                      |
|    \\/     M anipulation  |                                                 |
\*---------------------------------------------------------------------------*/
FoamFile
{
    version     2.0;
    format      ascii;
    class       scalarField;
    location    "0.252/lagrangian/defaultCloud";
    object      T;
}
// * * * * * * * * * * * * * * * * * * * * * * * * * * * * * * * * * * * * * //


24703
(
297.137
294.121
294.053
296.848
295.129
295.431
294.729
293.751
292.563
293.246
292.945
291.81
292.279
293.41
291.317
292.064
291.917
291.687
293.246
294.585
292.109
291.876
293.292
290.862
295.019
290.413
289.658
293.351
288.807
290.885
291.342
290.8
289.849
290.31
291.275
291.246
292.968
293.173
290.659
297.191
297.279
297.101
296.546
297.555
296.91
296.971
297.128
297.213
297.502
296.543
296.874
297.265
297.274
297.35
297.4
296.544
296.58
297.227
297.349
297.255
297.215
297.61
296.96
296.779
296.801
297.19
297.125
296.563
296.95
297.296
297.336
297.153
296.757
297.352
296.957
297.499
296.783
297.371
297.075
297.095
296.939
297.012
297.353
296.705
297.24
297.258
297.49
297.229
296.009
297.262
297.089
296.917
297.409
297.299
297.244
296.499
297.244
297.405
296.383
297.123
296.93
296.659
296.838
297.082
296.422
296.869
296.505
296.908
297.634
297.59
296.654
297.24
297.06
297.443
296.64
296.75
296.888
297.219
296.684
296.545
296.546
296.463
296.979
297.473
297.307
296.617
296.266
297.181
297.084
297.218
296.717
296.898
297.32
296.691
296.556
296.545
296.655
296.68
296.253
296.022
296.884
297.458
296.42
297.241
296.833
297.25
296.748
296.787
297.145
296.593
297.363
297.19
296.861
297.718
296.995
296.658
296.862
297.357
296.025
297.323
297.204
297.315
296.802
297.472
297.506
297.68
296.931
296.852
296.453
296.437
296.303
297.095
297.27
296.698
297.204
296.675
296.834
296.392
297.714
296.518
297.092
297.385
296.402
296.991
296.791
296.99
296.697
296.721
296.775
296.759
296.707
296.552
297.032
297.121
297.506
296.673
297.694
296.08
295.949
297.443
297.685
296.319
297.266
295.918
297.391
297.189
296.871
295.838
297.151
297.234
297.011
296.151
296.903
296.619
296.254
296.598
296.436
296.568
296.389
296.15
296.117
297.368
296.535
296.939
297.382
297.245
297.479
296.667
296.343
296.482
296.867
296.309
296.135
297.294
296.69
296.686
296.42
296.814
296.55
296.713
296.203
296.762
296.261
296.485
295.119
296.956
296.953
296.072
297.005
296.848
297.725
297.162
297.419
296.518
297.196
296.132
296.765
297.196
296.971
296.424
297.42
296.776
296.806
296.219
296.767
296.691
295.942
297.195
295.962
296.44
296.692
296.811
296.247
296.019
295.35
297.268
296.698
295.982
296.919
296.38
295.663
297.302
296.038
297.042
296.63
296.054
297.093
296.714
296.747
297.112
295.647
297.249
297.624
296.041
296.349
296.338
296.214
297.059
296.935
297.074
295.479
297.152
297.453
297.019
297.207
296.186
296.407
297.184
296.468
296.306
296.654
295.954
296.803
296.387
296.632
295.715
297.082
296.953
296.562
297.422
297.097
297.661
297.325
295.926
296.547
297.252
295.815
297.06
296.408
297.188
296.004
295.949
295.96
296.087
296.547
296.245
296.65
297.621
295.637
296.268
296.882
296.391
297.123
297.202
297.504
297.109
296.936
295.97
296.221
297.549
296.267
296.145
296.126
295.824
295.684
296.439
297.372
297.054
296.078
297.491
295.917
295.289
296.117
296.134
295.424
296.726
297.297
296.019
295.506
296.995
297.145
295.955
297.113
296.231
296.125
295.646
295.222
296.274
297.36
296.667
296.955
295.69
297.366
295.802
295.984
296.615
296.719
296.056
297.699
296.774
296.085
295.974
296.483
296.742
296.552
296.332
296.399
295.603
296.365
296.334
296.233
295.729
295.731
296.736
296.502
296.674
295.556
295.221
295.954
295.718
296.81
297.633
296.913
297.081
296.162
296.91
296.067
296.249
295.579
296.126
296.504
296.372
297.175
296.196
297.563
296.161
297.396
297.387
296.902
296.304
295.458
295.673
296.026
295.897
296.656
296.076
296.12
296.464
297.09
296.966
295.933
296.638
295.841
295.86
297.703
296.562
297.007
297.13
296.109
296.558
296.982
296.75
296.199
295.867
296.417
295.461
296.837
297.64
296.004
297.126
296.709
296.43
296.617
296.102
296.681
296.362
296.507
295.928
296.859
296.679
296.111
295.264
296.956
296.659
295.792
296.26
296.134
296.615
295.047
295.923
297.483
296.179
296.905
295.429
295.226
295.91
295.269
295.777
295.477
295.936
295.905
297.014
296.325
295.709
296.719
295.005
296.748
296.134
295.915
295.401
297.246
295.846
296.664
296.241
296.44
295.47
295.368
295.999
296.203
296.061
295.642
295.609
295.204
295.935
295.751
295.725
295.716
295.285
296.859
295.395
296.217
297.125
296.343
295.983
296.082
295.528
296.058
297.032
297.18
296.262
296.767
296.162
297.197
295.609
296.738
295.879
297.191
295.704
295.258
295.54
297.36
295.437
297.393
295.797
296.296
295.787
295.823
295.822
296.766
296.073
296.935
296.714
295.53
297.07
295.556
295.336
296.438
295.877
296.052
296.535
295.664
295.486
295.881
297.263
295.805
295.346
295.149
294.903
296.516
295.228
295.935
295.853
295.427
297.159
295.219
296.884
296.28
297.502
296.153
296.946
297.459
296.848
297.089
295.81
295.493
297.426
294.979
296.958
296.53
295.999
295.481
295.99
296.716
295.603
297.002
297.314
295.721
297.392
295.605
296.454
296.598
295.733
296.116
296.789
295.56
295.664
295.422
297.028
296.588
296.185
295.018
295.973
295.842
296.786
295.585
296.995
297.482
296.148
297.027
295.671
297.189
295.415
295.607
296.36
296.302
296.141
295.889
296.666
295.646
295.955
295.536
297.186
296.098
295.992
295.625
297.453
297.28
296.931
295.734
296.012
296.271
296.026
296.567
295.407
297.184
295.519
296.652
296.259
296.577
296.263
296.177
296.1
296.128
296.12
295.773
296.953
295.564
295.87
295.961
297.345
297.474
296.149
295.786
296.447
295.234
295.997
294.838
295.984
295.706
297.535
296.562
296.84
297.686
295.817
295.422
295.972
295.949
295.019
296.417
296.91
297.261
295.618
297.05
295.773
295.982
295.488
296.398
295.872
295.055
295.818
296.513
295.259
297.166
295.883
296.917
297.448
295.652
295.004
296.048
296.156
295.411
295.899
296.664
297.041
296.231
296.181
295.783
296.083
296.105
297.012
296.222
295.452
295.301
295.395
295.689
295.345
295.864
295.102
296.696
295.079
295.912
295.849
296.4
296.975
297.188
295.852
295.056
297.465
296.508
296.137
295.331
297.046
296.322
295.657
295.758
295.821
295.97
296.656
295.658
294.982
296.049
295.666
297.131
296.391
295.565
295.398
295.242
295.974
295.277
297.458
295.183
296.659
296.892
296.513
295.775
297.404
295.453
295.335
297.177
296.694
295.257
295.325
295.47
295.896
296.688
296.126
296.702
296.485
296.648
296.931
295.584
295.242
296.063
296.753
295.309
296.265
296.232
295.498
296.067
296.006
297.077
297.355
295.183
295.552
295.622
296.232
295.382
297.485
296.783
296.257
295.184
296.68
295.716
295.386
296.5
296.352
295.664
296.222
296.329
295.683
295.349
295.883
295.857
295.331
296.377
295.769
295.594
295.402
294.921
295.864
295.597
295.65
295.856
295.669
297.114
295.395
295.377
296.947
296.968
295.435
295.332
295.396
295.196
297.323
294.879
296.269
296.636
295.245
295.54
295.077
295.507
295.337
296.535
295.78
297.183
296.294
295.433
297.71
295.676
295.84
296.431
295.235
295.853
295.199
295.896
296.423
296.404
296.308
295.503
297.25
295.276
296.242
296.355
295.659
296.08
295.511
295.159
295.166
295.871
295.038
296.072
296.146
296.343
294.909
295.589
296.161
295.699
295.724
297.643
295.229
296.016
297.379
297.522
295.616
296.672
295.729
296.429
295.849
295.788
297.626
296.885
296.219
297.355
296.829
297.068
297.319
296.296
296.57
297.262
295.476
296.284
295.53
296.984
295.057
296.126
295.47
297.165
297.054
295.938
295.577
294.856
295.476
295.674
295.796
295.09
296.887
295.602
295.461
295.05
295.706
295.601
297.377
295.481
295.5
295.132
295.616
294.967
295.127
297.452
295.495
296.556
295.592
296.317
297.509
295.851
295.174
296.266
295.515
295.317
295.096
296.025
296.237
296.083
295.096
295.33
295.435
295.866
296.626
295.462
297.349
295.743
295.744
295.474
296.231
297.628
295.612
295.626
296.782
295.628
295.32
295.497
296.35
295.946
296.434
297.385
297.36
295.492
296.763
295.311
296.806
295.546
294.79
295.281
296.122
295.031
295.696
295.558
295.268
295.501
295.824
295.312
295.973
295.822
295.742
295.023
295.898
295.25
294.728
296.461
295.06
295.143
295.191
297.428
295.06
296.404
295.162
295.674
295.526
296.008
295.128
296.15
295.399
295.072
296.584
297.613
296.088
295.183
295.394
296.602
295.654
295.335
295.179
295.765
296.313
296.085
296.721
295.841
295.424
295.864
296.026
295.178
296.483
295.214
295.629
295.597
296.096
296.41
296.476
295.039
295.484
297.229
295.61
295.039
295.811
296.119
295.209
297.473
295.138
295.977
296.764
296.635
296.722
295.643
296.01
295.795
294.899
295.895
297.319
296.263
295.086
295.884
295.081
296.119
296.145
295.143
295.461
296.623
296.641
296.58
297.349
295.026
295.692
295.383
297.655
296.699
294.983
295.42
295
294.992
297.246
296.15
295.454
295.187
295.834
294.841
296.903
295.531
294.916
297.557
295.936
296.268
297.572
295.276
295.648
297.558
295.735
296.668
295.472
295.536
295.954
297.107
296.092
297.108
295.745
296.788
295.087
295.516
296.431
295.391
296.126
297.676
296.158
294.958
296.04
296.589
295.724
295.232
295.284
296.042
296.601
295.231
295.215
297.21
295.223
295.835
297.364
296.326
295.13
295.197
295.664
296.097
295.556
295.029
296.395
297.17
295.148
296.793
295.718
297.245
295.316
295.792
295.192
296.037
295.004
295.162
295.217
297.312
296.462
296.384
295.546
295.029
296.958
295.919
295.92
295.219
296.583
295.944
296.202
295.951
295.338
297.09
295.323
295.323
297.686
295.412
295.898
296.275
294.939
296.208
295.275
295.442
295.882
295.572
295.925
296.477
297.191
296.288
296.781
296.652
295.429
295.719
296.95
296.964
295.382
295.261
296.441
296.934
296.737
295.762
295.671
295.894
296.044
295.261
295.601
295.325
295.64
295.41
295.341
295.596
297.674
295.004
295.586
297.114
295.164
295.345
294.821
295.203
295.513
296.418
296.696
295.473
297.039
295.423
295.508
295.158
296.438
296.203
295.11
295.748
295.602
295.958
295.759
294.921
296.071
296.188
295
295.909
295.025
297.114
296.808
296.947
295.257
297.235
296.823
296.812
295.537
295.594
297.354
295.451
296.286
296.017
296.71
295.805
295.495
295.03
296.687
295.367
295.664
295.131
295.288
296.781
297.162
296.434
295.166
296.745
295.586
295.103
294.661
295.779
295.099
296.245
296.69
297.509
294.983
295.515
295.154
295.334
295.865
296.326
295.267
294.949
295.492
295.897
295.755
295.103
295.274
296.048
295.224
297.1
295.378
297.33
295.11
295.223
295.57
294.908
295.866
295.241
295.856
294.737
297.182
296.138
295.505
296.417
295.59
295.419
296.184
296.662
295.042
295.398
295.958
296.934
295.6
295.721
295.72
295.013
295.237
295.834
295.447
296.105
295.704
296.359
297.482
296.422
295.196
296.254
295.537
296.348
295.286
296.606
295.952
295.24
295.407
296.052
295.944
295.744
295.205
296.576
297.171
295.616
295.955
296.999
297.046
294.97
296.701
295.551
297.242
296.461
295.008
295.596
294.932
296.593
296.172
295.143
296.125
295.682
295.966
294.922
296.549
295.745
297.171
295.436
295.237
295.575
295.616
295.261
296.15
295.595
294.962
295.295
295.603
296.915
295.91
295.192
295.43
296.915
295.416
295.61
295.146
296.068
296.155
295.468
295.195
296.081
295.97
294.686
295.292
295.615
295.498
295.844
296.609
295.144
295.165
295.444
297.693
294.969
296.206
296.488
297.086
294.996
295.293
295.28
295.356
295.575
296.161
295.543
295.715
297.254
295.506
297.693
295.472
297.035
296.616
294.927
295.757
295.652
295.413
295.108
295.597
295.034
295.464
295.978
297.415
295.424
297.04
296.127
296.196
296.155
295.295
295.997
295.842
295.084
295.111
296.188
295.768
295.614
296.93
294.995
296.335
295.257
294.882
295.327
295.026
296.852
295.336
295.586
297.263
295.566
296.123
295.769
294.855
295.545
295.833
296.335
295.429
295.03
295.54
295.366
296.388
295.398
295.157
295.663
295.313
295.237
297.462
296.484
295.537
296.606
295.311
296.096
296.472
296.933
295.623
294.98
295.885
297.174
296.104
296.167
295.243
295.558
296.355
297.054
296.611
295.572
295.387
294.855
295.899
295.307
295.059
296.72
295.745
296.028
295.751
294.775
295.679
295.133
295.263
295.329
296.298
295.207
296.578
294.868
296.171
296.623
295.876
295.393
294.894
296.327
294.76
295.906
295.129
296.07
295.486
295.196
295.294
297.231
295.307
296.186
295.425
295.421
296.787
296.733
296.35
296.299
295.894
295.314
295.917
295.5
295.803
295.315
294.905
295.011
296.502
295.471
295.329
295.862
295.465
295.59
295.168
296.294
296.262
297.107
294.893
294.908
296.758
296.232
295.279
295.997
295.152
296.057
296.497
296.868
295.802
295.527
294.853
296.156
295.2
295.396
295.791
295.346
295.921
294.881
295.241
295.168
295.912
294.994
294.915
295.33
295.976
294.816
295.194
295
295.481
295.237
295.479
295.382
295.11
295.817
295.62
294.769
295.773
296.675
295.871
296.277
295.244
296.196
295.795
297.495
295.526
295.669
295.306
295.519
295.678
296.229
296.389
297.311
296.644
297.519
295.801
295.365
294.976
296.203
295.065
295.988
296.123
294.882
294.986
295.76
294.972
295.902
295.534
296.213
295.056
295.204
294.91
295.195
295.482
295.987
296.46
295.077
295.359
295.709
296.77
295.904
296.057
294.771
296.043
295.119
294.956
295.107
296.014
296.05
294.851
295.106
296.837
295.437
295.009
295.693
295.203
295.208
296.783
296.135
295.64
294.909
294.905
295.051
295.838
294.967
295.786
295.261
294.898
296.281
296.296
295.261
295.374
296.96
295.047
295.31
295.875
296.253
295.49
296.17
295.071
295.502
296.088
295.513
295.55
295.232
295.296
294.973
295.479
295.752
295.347
296.5
294.948
297.098
296.336
296.515
297.537
296.453
296.023
296.21
295.034
296.323
296.107
295.427
295.592
295.547
296.276
296.952
295.034
295.525
295.826
295.748
295.902
295.832
295.588
296.183
295.041
296.315
296.495
297.461
296.14
295.684
295.499
295.359
295.211
295.171
295.735
295.12
295.533
294.946
295.621
294.777
295.3
297.036
295.715
295.113
295.469
295.219
295.889
295.215
295.393
295.119
294.988
295.56
295.593
294.932
295.589
295.266
296.205
295.225
295.053
295.345
295.68
296.356
295.994
295.426
294.642
295.216
296.079
296.185
295.956
295.376
296.626
295.983
294.724
295.205
295.491
295.049
296.273
295.831
296.547
295.744
294.993
296.767
295.326
295.441
295.911
297.408
295.146
296.251
295.28
294.947
294.673
295.596
295.131
295.832
296.729
295.023
295.153
295.444
297.472
297.304
295.066
297.412
295.222
296.213
294.886
295.914
296.144
295.281
296.187
296.69
294.972
296.073
294.963
295.026
296.282
295.338
295.76
295.337
296.155
295.24
296.249
295.551
296.912
294.801
294.798
295.164
295.894
297.286
295.966
295.154
297.259
295.587
295.126
296.358
295.368
294.993
295.575
295.691
295.415
295.082
296.547
296.336
295.54
297.067
296.106
295.167
296.185
295.617
295.908
296.171
294.825
295.521
294.74
294.925
295.855
294.954
295.26
295.452
295.995
294.835
295.786
296.568
294.521
296.786
295.58
296.008
296.375
294.974
295.48
295.811
295.23
295.073
295.618
295.221
294.848
296.175
295.398
295.346
295.175
296.481
295.624
294.988
295.527
295.154
294.839
297.629
295.519
296.934
297.41
295.682
296.161
295.119
296.325
296.704
295.281
295.499
295.254
295.909
294.992
295.334
294.763
296.491
296.735
296.663
296.511
296.867
296.564
295.031
294.733
296.03
295.22
296.859
295.586
295.18
296.7
294.661
297.309
294.809
295.55
295.223
295.508
295.677
295.008
294.945
296.644
296.548
295.748
297.104
295.167
294.77
296.368
295.348
295.487
295.496
295.223
295.058
296.353
295.478
295.017
294.835
294.992
294.849
296.346
295.529
297.142
295.427
296.628
295.879
297.403
296.998
296.155
296.596
295.266
295.158
296.888
296.818
297.164
295.906
296.912
296.495
296.088
296.073
296.782
295.421
295.001
295.475
295.083
295.05
295.304
295.044
295.761
296.262
295.066
295.245
295.863
295.351
294.743
296.158
296.655
296.169
296.881
295.325
295.498
297.107
295.171
295.136
295.238
295.626
295.04
295.308
294.849
295.268
295.75
295.333
294.601
295.231
296.709
295.481
295.241
295.154
296.095
296.95
295.041
295.842
295.011
295.182
295.107
295.323
295.578
295.215
295.51
297.136
295.222
295.289
295.408
296.749
295.548
296.575
296.92
296.806
295.149
295.681
294.735
296.501
295.348
294.907
294.716
295.158
295.627
296.422
295.96
294.94
295.209
295.251
296.182
295.265
296.954
295.872
295.253
295.982
295.567
295.595
295.985
295.507
295.62
294.898
294.86
296.222
295.761
296.047
295.013
295.625
295.418
296.57
295.047
294.894
295.47
294.621
294.445
296.828
295.605
295.474
296.019
295.846
295.855
296.133
296.327
294.883
294.843
295.26
294.722
295.172
295.869
296.981
295.861
295.299
295.941
296.22
295.174
295.592
296.156
295.385
294.785
297.372
295.141
295.179
295.194
295.305
296.166
296.63
295.713
295.643
295.324
295.67
295.007
295.277
294.976
295.509
294.745
296.02
295.297
296.032
295.812
295.178
296.361
295.817
295.418
295.713
294.888
295.032
294.89
296.728
296.995
295.1
295.825
295.296
296.135
296.45
295.497
296.142
296.581
295.143
296.388
295.667
295.168
295.393
296.359
294.91
295.053
295.192
295.652
295.2
295.738
296.406
295.267
295.161
294.792
294.453
294.663
295.096
294.899
295
295.01
295.906
294.874
295.04
295.944
295.991
296.639
295.172
296.261
295.853
297.506
294.859
297.382
295.108
295.009
294.944
295.453
295.55
295.086
295.546
295.335
294.902
296.351
294.929
294.597
295.483
295.391
296.883
297.171
294.803
295.258
295.062
295.419
295.649
296.086
295.788
296.287
295.229
295.068
296.092
296.01
296.074
297.195
296.562
295.09
294.931
295.389
294.905
295.3
296.514
295.932
296.691
295.976
295.955
295.098
295.31
294.832
296.087
294.69
296.627
294.526
295.203
295.192
295.175
295.277
297.409
295.086
294.784
295.503
295.77
295.182
295.144
296.062
295.408
295.739
296.08
295.895
295.249
295.178
295.106
295.024
297.164
294.93
295.335
295.405
296.189
296.509
295.195
295.088
294.753
294.887
295.622
296.004
294.767
295.252
294.925
294.793
295.61
296.505
294.988
295.39
295.563
296.724
295.262
295.228
294.996
294.787
295.999
295.791
294.705
296.673
295.412
295.105
295.263
294.661
295.485
295.392
294.759
294.826
295.477
296.462
294.223
296.412
295.132
295.634
296.8
294.94
295.094
295.558
295.582
295.726
295.834
294.843
297.411
294.918
296.387
296.776
296.361
294.857
296.671
295.041
295.186
295.955
295.221
294.814
295.572
297.374
295.57
294.689
295.688
296.249
296.242
294.89
295.503
295.743
295.776
295.787
296.091
294.798
296.25
295.149
294.709
296.409
294.751
294.816
295.677
295.318
296.745
294.719
295.142
295.575
294.554
295.003
295.319
295.084
296.116
295.437
295.426
295.291
296.022
295.7
295.992
294.842
296.721
294.68
295.714
295.121
296.251
294.94
297.383
295.188
295.208
294.775
294.845
294.492
296.623
296.769
297.143
295.508
295.086
297.197
296.081
296.619
296.81
295.755
296.224
296.133
295.482
296.549
296.556
294.891
295.14
295.137
294.907
297.153
295.018
295.21
295.443
297.235
295.086
294.806
294.891
296.075
295.308
297.7
295.785
295.434
295.882
295.243
296.625
295.343
296.061
295.108
297.42
296.427
295.184
294.409
297.052
295.652
295.587
294.903
295.329
295.115
295.197
295.577
296.525
295.192
296.844
296.383
296.463
296.85
294.946
294.945
296.108
295.05
295.506
295.79
297.208
294.56
296.957
295.08
295.211
294.841
294.887
295.875
294.815
295.142
295.303
295.192
296.934
294.826
297.231
296.064
295.565
297.122
294.586
295.327
296.452
296.478
295.055
296.16
294.824
297.261
295.032
294.789
295.386
294.979
296.287
295.116
296.917
294.955
294.943
296.075
296.094
294.827
295.295
295.09
295.441
294.971
294.862
296.37
295.334
296.394
296.627
295.806
296.911
295.529
296.087
295.409
295.43
296.358
295.063
296.437
295.169
294.684
295.015
295.242
296.218
295.295
295.545
294.84
295.167
295.002
295.589
295.53
295.376
294.705
295.409
294.568
294.691
297.031
295.596
294.892
294.98
296.59
297.134
295.424
297.225
296.208
294.874
296.933
295.022
295.229
294.651
296.72
294.975
295.12
296.597
295.633
295.281
294.726
294.58
294.89
295.247
295.019
297.053
295.199
294.889
296.316
294.742
295.254
295.362
295.777
295.283
295.461
294.913
294.703
294.763
294.95
296.908
295.57
294.772
297.302
294.658
295.472
295.397
294.742
295.318
294.947
296.469
296.393
295.041
294.945
294.895
295.963
297.616
294.534
294.781
296.089
295.909
295.036
295.247
296.05
296.336
294.908
295.11
296.379
295.278
294.822
296.094
295.463
294.773
297.104
295.411
294.917
296.634
295.821
295.827
295.922
295.989
295.791
294.798
296.169
295.978
295.511
294.953
295.36
295.943
295.006
294.997
294.935
296.917
295.44
295.34
295.131
294.899
294.851
296.193
297.069
294.632
296.073
294.866
295.881
297.061
295.895
294.916
295.839
296.004
295.887
296.708
295.954
295.007
295.581
295.117
296.982
294.806
296.301
294.765
296.378
296.319
295.862
295.493
295.651
296.534
295.242
295.743
295.248
296.266
294.588
295.249
295.092
295.12
295.467
296.771
295.662
297.401
294.987
295.099
295.009
294.624
295.962
294.836
295.703
297.281
296.162
295.914
297.017
296.274
295.268
297.079
295.473
295.035
295.493
294.581
294.723
295.107
295.178
295.553
295.302
295.003
295.274
295.018
296.393
295.519
295.448
297.155
295.006
294.875
295.587
295.129
295.685
294.733
294.828
295.961
295.177
295.078
295.231
295.099
297.466
294.892
294.602
296.948
296.118
294.765
296.311
296.749
295.265
295.104
294.604
295.029
296.365
295.492
295.541
294.697
296.256
295.028
294.82
297.152
295.401
296.183
295.331
295.396
296.895
296.41
295.03
297.647
294.96
295.105
295.09
296.723
296.648
294.547
295.594
296.979
295.202
297.075
295.271
295.016
294.883
295.044
295.23
295.864
295.544
295.874
296.829
295.045
295.426
295.152
296.519
295.275
297.155
295.312
296.341
295.656
295.686
295.153
294.608
294.775
295.334
295.437
295.214
294.68
295.278
297.199
296.599
295.17
294.667
295.792
295.364
295.635
295.436
294.472
294.636
294.564
295.32
296.043
295.976
295.64
294.931
296.498
295.629
296.74
295.985
295.107
294.897
295.445
295.463
296.223
296.324
294.954
295.724
296.052
294.516
294.9
294.828
294.714
295.088
294.813
294.817
297.494
295.338
295.462
294.622
295.514
295.56
295.094
294.499
295.992
295.327
294.96
294.912
294.87
296.255
296.019
294.819
296.546
294.898
297.367
297.207
295.646
295.179
297.339
295.52
294.683
295.419
295.298
294.877
295.177
295.483
296.174
295.024
295.563
295.235
296.051
295.768
296.63
294.947
295.125
297.692
294.823
296.564
295.387
295.788
294.729
295.163
297.121
294.742
295.222
297.408
295.164
295.564
296.66
295.775
296.218
295.343
297.605
296.72
295.35
295.73
295.516
295.985
295.53
295.253
296.191
294.626
295.13
295.593
294.729
294.697
295.786
297.276
295.13
295.601
294.81
295.469
294.999
295.11
294.832
295.582
296.417
295.168
295.629
295.198
296.251
295.424
294.854
297.238
296.314
295.377
295.038
296.123
296.798
296.555
297.37
296.013
294.856
296.044
295.743
295.401
295.34
297.287
295.563
295.883
295.257
294.521
296.11
295.224
295.315
294.763
294.729
296.225
295.447
295.646
295.147
295.357
295.068
295.137
295.635
294.82
295.525
295.78
295.107
294.939
295.762
295.621
295.684
295.059
294.561
295.276
294.793
295.832
294.816
295.065
294.889
294.865
294.543
294.512
295.659
296.477
295.196
295.906
294.465
297.565
295.268
295.271
295.634
294.883
295.332
294.528
295.028
295.037
295.681
297.642
295.114
295.654
295.291
296.873
297.019
295.017
295.145
296.098
295.754
295.448
294.359
294.756
296.176
294.84
295.875
295.499
294.638
294.674
296.059
295.788
294.794
295.494
295.775
294.676
294.929
297.56
294.635
297.224
295.27
294.774
297.39
294.716
297.445
295.006
295.193
295.22
295.322
295.706
295.558
295.126
296.462
296.594
294.9
294.378
297.288
295.973
295.398
297.475
295.477
294.927
294.717
295.095
295.022
296.237
295.173
294.664
295.316
295.636
294.678
294.735
295.544
295.098
294.902
295.79
294.766
295.266
295.048
296.205
295.36
296.735
295.452
295.406
297.099
295.589
295.551
296.153
296.269
294.447
294.616
295.437
294.917
295.113
295.025
295.135
296.713
297.467
297.326
295.781
296.874
296.778
295.255
295.672
295.029
294.675
295.844
294.699
295.282
294.923
294.985
295.097
297.357
294.856
294.484
294.954
295.787
296.239
296.402
297.122
295.086
295.375
294.867
295.106
295.994
296.588
295.942
295.167
295.25
295.869
294.626
295.322
295.141
295.249
295.403
294.852
295.392
295.154
294.836
296.463
294.393
294.853
294.996
294.787
295.145
295.454
295.111
295.212
294.594
294.463
294.603
297.468
294.842
295.103
295.555
296.009
294.94
294.377
295.435
294.938
295.37
295.819
296.194
294.93
294.844
295.23
295.137
295.04
294.851
295.669
296.456
294.363
296.563
294.662
294.333
294.516
294.716
296.681
295.964
294.623
295.122
294.686
294.996
294.769
295.405
294.442
295.205
294.978
295.074
295.905
294.84
294.376
294.623
297.632
296.219
295.103
295.231
295.254
295.463
294.682
294.775
296.524
295.295
296.073
296.719
294.815
294.884
295.154
296.366
294.775
296.209
295.298
295.69
294.714
297.085
295.037
295.036
296.501
295.292
296.954
295.703
295.151
295.663
294.252
295.743
294.637
295.42
295.053
295.215
295.157
296.028
294.546
295.92
297.016
295.39
295.761
295.032
294.952
295.047
295.109
295.226
294.716
294.235
295.133
295.179
296.471
295.341
295.979
295.655
295.643
295.102
295.444
294.53
295.245
295.24
294.386
295.112
295.075
294.618
295.153
295.163
295.491
297.424
295.658
296.919
294.618
294.784
295.108
295.795
294.234
295.408
295.244
295.733
296.359
295.948
294.942
295.909
294.664
294.781
295.39
296.427
294.685
295.282
294.705
295.623
294.898
297.465
295.693
294.841
294.71
295.324
294.892
295.829
295.429
297.04
294.664
297.194
295.299
295.441
295.433
297.528
294.888
295.145
296.656
295.8
294.807
295.154
296.05
295.155
295.129
295.176
295.991
294.865
294.495
295.074
296.275
297.582
294.408
296.146
295.686
297.455
295.002
296.181
295.104
294.983
295.431
296.232
297.143
294.972
294.516
297.105
296.682
296.992
295.551
295.262
296.112
296.472
295.284
294.813
295.965
295.555
294.661
295.707
294.782
294.971
295.544
295.194
296.415
295.884
294.804
294.647
295.895
295.043
294.755
295.384
294.267
296.599
294.821
295.278
295.223
296.076
295.094
294.734
295.624
295.262
295.549
295.244
294.957
294.955
295.359
295.664
296.24
296.475
295.669
294.856
295.296
294.775
295.153
295.322
296.623
295.533
296.322
295.831
295.785
294.418
294.996
295.396
295.292
295.383
294.765
296.97
296.549
295.4
295.322
297.482
294.911
294.799
294.669
295.866
295.615
295.185
295.907
295.198
294.645
294.691
295.245
294.686
296.5
295.678
294.784
294.625
296.211
296.063
294.961
294.916
296.32
295.278
295.044
295.338
295.518
294.546
295.432
295.14
294.96
295.996
295.896
295.818
297.344
296.326
295.038
295.522
295.992
296.191
295.046
297.365
294.769
295.066
295.584
294.914
295.308
296.062
297.358
296.503
294.996
295.124
295.798
295.045
295.426
297.164
295.172
295.093
296.124
297.013
296.736
294.996
295.204
295.637
294.976
295.37
295.261
295.158
294.731
295.365
294.802
296.297
296.151
295.224
294.914
295.263
294.754
295.408
295.324
294.884
294.986
295.103
297.084
297.538
296.27
295.849
294.863
295.187
297.078
295.12
296.071
295.718
295.378
294.625
296.156
295.818
296.076
295.167
294.644
295.182
295.009
295.004
296.024
295.695
296.95
295.002
296.773
294.887
295.271
294.916
296.029
295.044
295.002
295.232
294.865
297.044
295.457
296.641
295.023
295.232
294.569
294.725
295.215
295.276
295.063
294.862
294.93
294.457
295.127
295.621
295.562
294.716
294.74
296.585
295.532
294.698
294.559
295.824
294.53
294.813
294.431
295.268
295.959
294.993
294.916
294.912
295.059
294.45
294.863
296.032
295.728
296.789
295.016
294.855
296.685
297.114
295.167
296.803
294.965
295.114
296.553
295.289
296.882
295.829
295.057
295.155
295.94
295.133
295.133
295.09
295.58
294.911
294.536
294.876
294.583
294.919
294.743
294.921
295.056
297.475
296.915
295.57
294.927
294.583
295.152
295.391
294.659
295.087
294.682
294.878
295.194
296.32
295.034
294.61
294.724
296.417
295.494
295.67
296.749
295.173
295.055
296.051
295.113
296.194
294.939
294.967
296.834
295.461
295.418
295.561
295.284
295.868
294.853
296.532
294.301
294.8
295.556
295.549
294.687
294.128
295.296
294.752
295.494
295.806
295.015
296.539
296.321
295.122
294.976
294.679
296.85
295.863
294.507
294.532
296.037
295.019
295.485
294.422
296.534
295.257
296.793
294.235
297.061
295.614
295.018
294.645
295.087
295.496
296.885
295.064
295.279
295.157
294.824
295.581
297.278
295.716
295.561
295.238
297.417
295.067
295.35
295.067
297.221
294.99
294.358
295.489
295.34
294.923
294.806
294.64
295.64
294.861
294.856
296.766
295.833
296.08
294.638
294.948
294.837
295.164
295.478
297.659
294.874
294.672
295.328
295.119
294.659
294.733
294.948
294.837
295.308
296.204
296.095
296.72
294.56
294.315
295.092
295.814
295.579
294.927
296.074
295.059
295.49
294.732
294.781
294.327
294.535
296.147
294.97
294.932
295.021
294.967
295.371
295.244
294.805
294.774
294.987
296.007
294.92
294.653
295.129
295.037
296.517
295.635
296.337
294.673
295.052
295.36
295.317
295.674
295.484
295.374
294.64
294.308
294.914
294.711
296.113
295.261
295.056
294.955
296.406
294.686
294.7
295.408
294.745
295.045
294.65
294.951
296.888
294.796
294.757
295.868
294.749
294.367
295.637
295.869
294.251
295.668
294.665
294.532
294.696
295.509
295.103
294.782
296.609
296.115
295.196
294.327
294.977
295.388
295.343
296.521
294.765
294.881
295.135
294.97
294.623
297.06
295.781
294.966
294.421
295.069
295.069
295.841
295.235
295.404
294.965
295.056
294.854
296.499
295.198
294.609
295.569
294.831
294.393
294.408
294.609
297.342
295.188
294.933
294.514
295.176
295.047
294.712
294.564
296.504
295.16
295.678
295
296.742
296.061
294.742
295.045
294.329
294.869
295.464
294.962
296.07
295.682
294.684
295.314
297.325
295.747
294.288
295.342
295.491
294.711
297.628
297.433
295.312
295.565
294.657
295.013
295.359
295.164
294.44
296.478
295.061
295.293
295.978
294.902
294.563
294.71
294.924
295.623
296.858
294.953
294.955
294.733
295.193
296.139
295.033
297.465
295.122
296.226
295.259
294.165
295.009
294.81
295.447
295.35
295.145
295.069
295.296
295.514
294.821
295.574
294.762
294.917
295.086
295.278