/*--------------------------------*- C++ -*----------------------------------*\
| =========                 |                                                 |
| \\      /  F ield         | OpenFOAM: The Open Source CFD Toolbox           |
|  \\    /   O peration     | Version:  1.7.0                                 |
|   \\  /    A nd           | Web:      www.OpenFOAM.com                      |
|    \\/     M anipulation  |                                                 |
\*---------------------------------------------------------------------------*/
FoamFile
{
    version     2.0;
    format      ascii;
    class       scalarField;
    location    "0.252/lagrangian/defaultCloud";
    object      tTurb;
}
// * * * * * * * * * * * * * * * * * * * * * * * * * * * * * * * * * * * * * //


24703
(
0.0030475
7.5e-05
0.00199
0.005085
0
0.00045
0.001725
0.001425
0.003875
0.00155
0.0032725
0.0011775
0.0038725
0.00449
0.00352
0.003545
0.0005325
0.0021175
0.0019175
0.000715
0.000755
0.0004175
0.000325
4.75e-05
0.002115
0.001915
0.0002375
0.0006025
0.00145
0.0036675
0.0013275
0.002615
0.00105
0.00019
0.003685
0.001105
0.000625
0.004045
2.5e-05
0.03117
0.00163
0.006955
0.02437
0.029395
0.0044425
0.00592
0.048545
0.05275
0.031645
0.0129025
0.0225875
0.024905
0.0277075
0.039635
0.0221225
0.0143675
0.0122825
0.0319125
0.014605
0.0350875
0.0439925
0.0257075
0.0249425
0.0030775
0.044285
0.041425
0.03438
0.01895
0.0454375
0.0245425
0.0474225
0.0324725
0.006955
0.05242
0.00452
0.00728
0.0466425
0.0469925
0.0515125
0.0123
0.0365075
0.0504275
0.03713
0.041225
0.0468825
0.0381375
0.042805
0.0463425
0.02775
0.04882
0.039475
0.0050025
0.033695
0.0235125
0.03886
0.0099875
0.0454875
0.0213375
0.0439675
0.0364475
0.0053025
0.005655
0.01978
0.0191775
0.0325325
0.0295725
0.0184875
0.0481475
0.00467
0.0229675
0.005575
0.032745
0.0036625
0.0556925
0.0063
0.045955
0.020715
0.03028
0.00082
0.024475
0.02582
0.037455
0.0177075
0.0175375
0.03457
0.02528
0.0275425
0.0354725
0.0507725
0.0459975
0.0275725
0.035985
0.03931
0.006155
0.0196125
0.012895
0.01473
0.033335
0.006505
0.0123225
0.03014
0.03201
0.0130225
0.03692
0.03249
0.008635
0.0374775
0.00889
0.039475
0.02809
0.0232275
0.00939
0.022825
0.0038525
0.0190375
0.03944
0.0424575
0.0374725
0.03022
0.02856
0.0294525
0.0167275
0.028065
0.0172975
0.01732
0.0117375
0.0448575
0.0370275
0.0028675
0.01827
0.0328075
0.04211
0.0492075
0.0266175
0.037705
0.031425
0.00796
0.02951
0.0328525
0.02908
0.0328325
0.0429425
0.00046
0.035985
0.01067
0.04186
0.03415
0.036965
0.0200675
0.036495
0.0168225
0.00837
0.015845
0.0183275
0.0174625
0.018645
0.0040125
0.0122075
0.017595
0.0264025
0.005485
0.0099675
0.01672
0.0131175
0.02545
0.0107825
0.01263
0.012685
0.0206
0.0011525
0.03291
0.0172375
0.013965
0.0222425
0.0424
0.0036975
0.0265175
0.0091575
0.014735
0.029965
0.042985
0.00513
0.005915
0.006105
0.009485
0.0239875
0.0086075
0.0395275
0.02482
0.0393375
0.0211725
0.015695
0.0001775
0.018765
0.014145
0.0322
0.0068275
0.0388725
0.0276125
0.038165
0.0070375
0.0358325
0.03268
0.0313775
0.012205
0.0330775
0.0049375
0.008375
0.0232375
0.012525
0.05258
0.026675
0.002225
0.015625
0.025245
0.0325075
0.02029
0.0291875
0.0070575
0.0070425
0.0488975
0.0078075
0.0069125
0.020915
0.00777
0.0128375
0.01022
0.0140475
0.0040075
0.040355
0.0184875
0.0237125
0.01997
0.0272925
0.000905
0.000635
0.0410125
0.0302725
0.0342375
0.0354275
0.02581
0.0367925
0.0052975
0.000225
0.033935
0.03577
0.0126825
0.0151125
0.038905
0.0208975
0.008915
0.009605
0.0468525
0.00297
0.035215
0.024745
0.0096
0.03184
0.0109625
0.0300025
0.0154
0.03297
0.0580125
0.01036
0.03357
0.009535
0.03413
0.0412175
0.0196
0.0334175
0.02944
0.0087275
0.0234425
0.0057
0.03683
0.0112175
0.0139775
0.0079825
0.0381475
0.0333225
0.0204425
0.0061225
0.0209
0.033165
0.0436125
0.039205
0.0156775
4.5e-05
0.0383375
0.03641
0.00593
0.0193625
0.0293575
0.02798
0.0125375
0.0192125
0.036175
0.0248525
0.028215
0.02121
0.020765
0.0256225
0.0195225
0.0251825
0.0222225
0.0289275
0.0242825
0.0011975
0.0064575
0.0221725
0.01654
0.03738
0.0032325
0.0043875
0.04135
0.016255
0.0224
0.0384
0.0295675
0.0058275
0.0312125
0.0168075
0.0105625
0.0253025
0.0086325
0.0074275
0.04985
0.0114775
0.0307025
0.00778
0.005035
0.0052475
0.021615
0.0369625
0.0085075
0.00892
0.0323875
0.0332175
0.02771
0.009365
0.00899
0.023985
0.0137275
0.036695
0.0386125
0.02757
0.024675
0.0108925
0.004685
0.0089075
0.040845
0.033225
0.003055
0.01467
0.019055
0.01662
0.0392875
0.00054
0.01216
0.015845
0.0239425
0.009485
0.0119725
0.03892
0.0194125
0.030945
0.006885
0.00509
0.0296575
0.030815
0.0248375
0.0114725
0.0160175
0.0122675
0.0349475
0.03528
0.01635
0.0421875
0.0123875
0.01536
0.0214975
0.0030575
0.0034625
0.0329125
0.011885
0.00241
0.0281825
0.0320475
0.00515
0.0223225
0.04083
0.01025
0.02413
0.0108475
0.0222175
0.02249
0.0275925
0.0281575
0.0145525
0.0068025
0.032015
0.01833
0.0396175
0.023905
0.005045
0.0117225
0.0038175
0.0250075
0.03906
0.0106525
0.04407
0.00032
0.0016625
0.0257175
0.0075325
4.75e-05
0.01113
0.041435
0.025065
0.011015
0.0196
0.0076075
0.0384125
0.00833
0.017325
0.0017075
0.026905
0.0183925
0.027705
0.037235
0.0032975
0.01343
0.00108
0.03229
0.0027675
0.003455
0.0121125
0.01775
0.0004475
0.0141525
0.0014375
0.016285
0.0375275
0.00466
0.0371725
0.038675
0.00863
0.01252
0.000325
0.0014925
0.00275
0.0315275
7.25e-05
0.0333925
0.0297675
0.01369
0.006685
0.040195
0.0338475
0.00162
0.0039725
0.0402625
0.027225
0.011415
0.0064925
0.02912
0.015425
0.0350975
0.01418
0.02703
0.01995
0.012875
0.00195
0.0346675
0.0321425
0.0285125
0.0063175
0.01392
0.0355
0.0322875
0.0024
0.01189
0.0154425
0.004215
0.01603
0.005575
0.011445
0.0254225
0.0442975
0.0074625
0.001535
0.0423075
0.013245
0.041395
0.003045
0.0175825
0.0285975
0.020785
0.0013
0.0396475
0.00944
0.0251825
0.025215
0.0192325
0.023745
0.0232625
0.02467
0.0064525
0.008315
0.037045
0.0074125
0.0069925
0.01476
0.029955
0.01151
0.0353375
0.00858
0.0166425
0.0208
0.012125
0.0182725
0.0017225
0.0239025
0.0135275
0.0025975
0.019185
0.032205
0.0058325
0.021615
0.0042125
0.0314075
0.03597
0.0349275
0.0410825
0.01419
0.0177975
0.00648
0.0111675
0.0088375
0.015525
0.00166
0.0242375
0.001665
0.00464
0.00162
0.0128325
0.0047975
0.03559
0.0386975
0.0302975
0.03472
0.0028175
0.018415
0.013225
0.0187225
0.0244625
0.0367775
0.024915
0.02862
0.0072025
0.0015675
0.0391325
0.0384475
0.0016125
0.01309
0.012025
0.000555
0.0279825
0.0359775
0.0364975
0.002535
0.0333725
0.032555
0.0208825
0.0023475
0.03065
0.013425
0.01675
0.0356425
0.0349
0.0266025
0.0275025
0.0105225
0.027295
0.022575
0.00617
0.03198
0.024755
0.0062975
0.012845
0.0178875
0.018255
0.0302475
0.01064
0.0208975
0.0175325
0.0387925
0.0292575
0.0103375
0.0356375
0.0108175
0.029195
0.009625
0.0124
0.0402825
0.0226325
0.0111
0.001285
0.01257
0.0364925
0.023575
0.037385
0.00105
0.031335
0.0131775
0.0229925
0.02798
0.021765
0.03865
0.0296875
0.032855
0.0206825
0.0086
0.0160675
0.0110875
0.03184
0.0053625
0.0075575
0.021135
0.006785
0.0128825
0.031785
0.008245
0.030005
0.0089425
0.0231375
0.0330025
0.0272475
0.0266475
0.0347225
0.0044825
0.027735
0.019165
0.005255
0.00243
0.020395
0.01041
0.041935
0.031925
0.02776
0.019965
0.00994
0.012185
0.0130825
0.012155
0.014955
0.030655
0.0133375
0.01733
0.01863
0.0382175
0.00978
0.0060175
0.008055
0.0389575
0.02345
0.0178525
0.0261775
0.022085
0.0320675
0.013465
0.0405275
0.025385
0.03749
0.02838
0.00373
0.0114425
0.0142075
0.034895
0.01678
0.017055
0.0136775
0.003
0.0229475
0.029755
0.0007475
0.0119025
0.017015
0.008905
0.000575
0.027365
0.025735
0.0031625
0.0318975
0.010585
0.009935
0.002545
0.0147875
0.0364225
0.00371
0.03065
0.01681
0.00995
0.0336925
0.0369775
0.0091475
0.003125
0.0211425
0.019525
0.00843
0.0064875
0.043095
0.0142175
0.0367675
0.0307725
0.012075
0.01897
0.029265
0.0132
0.0104925
0.0264325
0.0192275
0.03025
0.0120325
0.0283575
0.0032325
0.02444
0.0183575
0.02696
0.0286875
0.0072
0.000575
0.03384
0.0367475
0.038325
0.01668
0.01478
0.011405
0.018615
0.03713
0.0428575
0.0253075
0.0351575
0.01003
0.038555
0.0002875
0.03641
0.0279475
0.0039275
0.007235
0.028695
0.027985
0.01636
0.00879
0.006765
0.0177125
0.0302
0.0278725
0.0130975
0.0299525
0.00703
0.02739
0.024455
0.0367175
0.0324625
0.0356125
0.0175675
0.0051325
0.002215
0.0148125
0.0076475
0.02848
0.0249575
0.037495
0.0168
0.0025325
0.009315
0.0307225
0.0028025
0.0067575
0.008325
0.034225
0.01168
0.05234
0.011545
0.0019475
0.028515
0.0080725
0.023895
0.040585
0.014565
0.0024775
0.02113
0.003105
0.020845
0.00339
0.03175
0.0034375
0.005685
0.0323375
0.0279425
0.0360925
0.00673
0.010405
0.00448
0.0066025
0.031645
0.0034425
0.02472
0.026365
0.0014525
0.0084975
0.0261875
0.02567
0.0400775
0.00783
0.023635
0.031875
0.0111775
0.001685
0.0216425
0.0116075
0.0052725
0.0244
0.0034475
0.0069
0.0177175
0.0238775
0.0034325
0.036315
0.0236475
0.0230425
0.0143
0.02407
0.0292725
0.0294725
0.022425
0.0348975
0.02249
0.012175
0.000435
0.0398025
0.0139975
0.01663
0.0019075
0.008815
0.0093275
0.02317
0.01436
0.0102675
0.0302825
0.0040475
0.0281625
0.017085
0.010855
0.0184775
0.0283325
0.01817
0.00436
0.0379375
0.00204
0.03314
0.03218
0.027265
0.0388175
0.01265
0.0297375
0.0203975
0.01065
0.01652
0.00028
0.0301
0.008025
0.02393
0.011195
0.0276225
0.014015
0.0356725
0.031245
0.0171225
0.0015075
0.0016875
0.0059325
0.01817
0.0360925
0.0254775
0.0256375
0.012815
0.0169425
0.0252925
0.0262225
0.034965
0.0071375
0.00064
0.0315525
0.008735
0.016835
0.014105
0.0333325
0.0372
0.0217975
0.004645
0.0001
0.006855
0.018675
0.000215
0.036505
0.02204
0.0271075
0.03053
0.03343
0.0198775
0.01304
0.031325
0.0086325
0.02984
0.01667
0.018825
0.0218975
0.03453
0.02556
0.0279925
0.0146525
0.027395
0.00078
0.013175
0.0345575
0.033185
0.0168775
0.003165
0.0110325
0.0246025
0.019755
0.032245
0.0185025
0.0170975
0.0190525
0.0058425
0.0345925
0.0367025
0.01044
0.03725
0.0377425
0.01859
0.03793
0.01953
0.0166025
0.037445
0.02546
0.0333375
0.034715
0.0384225
0.005345
0.00078
0.0108575
0.011305
0.0319775
0.039045
0.0023375
0.006405
0.031845
0.03063
0.007925
0.0266175
0.0133725
0.024435
0.0065025
0.0350675
0.0114525
7.5e-05
0.0120525
0.0264925
0.0280275
0.00462
0.0336725
0.0324075
0.01184
0.00399
0.0352975
0.038635
0.015365
0.0129025
0.00938
0.0278375
0.0261725
0.0394025
0.01782
0.00195
0.01938
0.0313825
0.0064775
0.02727
0.0248125
0.0061275
0.0188475
0.01688
0.00818
0.0053375
0.0041025
0.0025125
0.0015775
0.03165
0.007325
0.01544
0.03838
0.026025
0.0128225
0.039775
0.0172575
0.0066575
0.00457
0.030885
0.018485
0.020695
0.0131975
0.0231675
0.015195
0.03815
0.02768
0.0058525
0.00368
0.00511
0.0144275
0.01577
0.00347
0.03492
0.00088
0.000595
7.5e-06
0.0185625
0.0067425
0.01797
0.0322275
0.0253525
0.0421325
0.0156
0.0084325
0.0341875
0.001705
0.001915
0.0131075
0.0036225
0.028245
0.02554
0.0222575
0.0161575
0.0198
0.000795
0.000205
0.00353
0.00371
0.019045
0.013205
0.003595
0.01194
0.0132875
0.0172525
0.0336075
0.0049125
0.0002675
0.040105
0.0047675
0.031035
0.0236425
0.01599
0.008365
0.0289825
0.0167125
0.014395
0.029105
0.00332
0.0238225
0.0218425
0.0002825
0.0276675
0.0079375
0.00639
0.00084
0.0123675
0.0120125
0.0215375
0.0291075
0.02427
0.0029325
0.0333425
0.02715
0.0127625
0.0136275
0.0002475
0.006255
0.0195075
0.0155275
0.0098525
0.025395
0.01941
0.0288225
0.014395
0.0009025
0.0198275
0.0086475
0.0272875
0.01921
0.005565
0.0175375
0.010725
0.0168175
0.0327
0.008515
0.029165
0.0350725
0.016165
0.0173425
0.02593
0.01183
0.003515
0.031315
0.0184925
0.0145
0.0123275
0.023105
0.0171525
0.0094125
0.0007025
0.0123325
0.0063925
0.027515
0.0048
0.0126825
0.018605
0.00977
0.0155875
0.035125
0.00959
0.005645
0.0027025
0.002705
0.036055
0.0052
0.03174
0.0444625
0.0330075
0.014455
0.01246
0.03026
0.0186975
0.01772
0.017975
0.0217125
0.0061975
0.0279475
0.00946
0.008095
0.0022475
0.026235
0.0289175
9.75e-05
0.01001
0.0060725
0.00261
0.0209275
0.00016
0.021295
0.03705
0.00695
0.0284525
0.0412925
0.0040925
0.03599
0.0093425
0.0363325
0.0218975
0.0077075
0.0269325
0.02561
0.008625
0.0056275
0.009525
0.0013975
0.0183625
0.0215025
0.0195125
0.02587
0.00614
0.010135
0.0299675
0.026695
0.01811
0.0216325
0.0191475
0.0037825
0.0060525
0.0146875
0.01883
0.03206
0.0037875
0.0052275
0.001225
0.00545
0.0060325
0.03519
0.0304025
0.013855
0.0237875
0.0176525
0.0221975
0.0121925
0.011335
0.0278925
0.008925
0.0109425
0.0374375
0.0138475
0.01283
0.0347425
0.0365275
0.0270075
0.0150475
0.0099775
0.01059
0.0240975
0.04159
0.0316475
0.03228
0.00376
0.01897
0.00363
0.0091025
0.0079875
0.03081
0.008545
0.0293875
0.0151775
0.0091075
0.0265625
0.0181375
0.0170025
0.02175
0.0122775
0.01899
0.0044475
0.0048025
0.010465
0.0396975
0.019735
0.016015
0.0075675
0.03549
0.024435
0.00714
0.03152
0.001135
0.0073525
0.0264775
0.0342775
0.031925
0.0284975
0.02427
0.00738
0.02337
0.026275
0.00013
0.019445
0.0335225
0.0011325
0.03286
0.0299775
0.0112725
0.016085
0.009545
0.009925
0.0278125
0.000935
0.001405
0.04153
0.02576
0.0092275
0.0042525
0.01324
0.019145
0.001295
0.032185
0.0342925
0.0127075
0.00949
0.0159225
0.0161575
0.0026525
0.0197025
0.0300725
0.0336275
0.0315875
0.0260625
0.0003325
0.0092975
0.031045
0.011955
0.02544
0.01212
0.0132325
0.0215175
0.04093
0.00596
0.03609
0.0354325
0.00296
0.0211775
0.0030575
0.0265025
0.0304175
0.009245
0.01744
0.02701
0.023225
0.005455
0.0219475
0.0181425
0.0199275
0.03078
0.026185
0.0101425
0.0275675
0.0419525
0.01725
0.0124675
0.0090475
0.0110075
0.03613
0.0196625
0.0097875
0.0334425
0.0151125
0.015325
0.0174175
0.00181
0.0114675
0.031475
0.0204975
0.0094475
0.0106175
0.0148175
0.003
0.0001
0.012035
0.0151725
0.0181075
0.02439
0.0209375
0.031735
0.0273975
0.0128125
0.0118375
0.015605
0.0167
0.0095525
0.0373375
0.033305
0.0257725
0.02014
0.031305
0.01806
0.01057
0.033055
0.027295
0.03027
0.00245
0.003855
0.0049125
0.00782
0.009405
0.0305425
0.0163225
0.02007
0.0094575
0.00851
0.01107
0.0147075
0.0094975
0.0098325
0.01362
0.0298875
0.00893
0.026565
0.0376
0.0290425
0.0147025
0.0059425
0.0050825
0.0140025
0.0300575
0.0173125
0.0087225
0.011835
0.00099
0.0078125
0.02747
0.019875
0.028325
0.016475
0.0210525
0.026395
0.0187
0.0037275
0.00242
0.03125
0.0146975
0.01229
0.0094175
0.033205
0.026285
0.013895
0.02699
0.014745
0.03671
0.0122625
0.0002575
0.0048275
0.00981
0.03263
0.04665
0.014595
0.01322
0.00828
0.01063
0.0001475
0.024885
0.025515
0.0066125
0.03128
0.0335975
0.01456
0.0238975
0.0142025
0.01227
0.024195
0.0037675
0.003185
0.0017875
0.004315
0.0218725
0.001355
0.01275
0.0076525
0.009855
0.02335
0.016575
0.034665
0.0173375
0.003835
0.023455
0.01717
0.0073
0.0331775
0.020625
0.01354
0.03673
0.0175375
0.023705
0.0073975
0.0152075
0.0089725
0.0165775
0.0203975
0.011085
0.0246
0.0180425
0.029205
0.0091425
0.00718
0.021345
0.0065975
0.0166425
0.0142275
0.006295
0.009885
0.0316775
0.0281325
0.020555
0.00778
0.0087675
0.0217725
0.0449675
0.0048525
0.0260775
0.0327775
0.004395
0.004465
0.0179375
0.0191875
0.0290575
0.00554
0.0028125
0.011445
0.0236625
0.03936
0.0245525
0.0249975
0.02473
0.01352
0.0013975
0.010435
0.0030325
0.016885
0.032845
0.0138725
0.0329275
0.0247175
0.0067225
0.02252
0.032745
0.0061375
0.02006
0.00813
0.0186625
0.02667
0.03789
0.011955
0.03887
0.02095
0.017665
0.0280825
0.0298875
0.0262075
0.00657
0.0037725
0.0118425
0.020885
0.04028
0.0285175
0.00674
0.002105
0.03123
0.0134725
0.008955
0.0248075
0.00448
0.022995
0.0035725
0.0346175
0.008635
0.0279975
0.015805
0.0265175
0.030875
0.017875
0.02834
0.0241475
0.024455
0.01734
0.02586
0.0043775
0.0247075
0.017565
0.0239325
0.022705
0.0135375
0.01616
0.016585
0.005655
0.031935
0.0350425
0.0147875
0.0051975
0.0313975
0.0165325
0.0223875
0.0062875
0.01386
0.0066775
0.02082
0.02074
0.029875
0.0081775
0.0223725
0.02751
0.0322025
0.0025775
0.034095
0.0116175
0.028335
0.0183475
0.0103525
0.0008225
0.006495
0.026185
0.00872
0.0050725
0.0324475
0.0171325
0.0015975
0.0341225
0.01079
0.015545
0.0009925
0.005765
0.01904
0.03186
0.02844
0.00931
0.0164225
0.02114
0.0173925
0.021395
0.0142975
0.0311675
0.00958
0.0124125
0.0401275
0.01142
0.0239875
0.013165
0.0072125
0.03342
0.0136675
0.0002025
0.0219375
0.004795
0.03669
1.5e-05
0.0098325
0.02734
0.02355
0.00586
0.015625
0.0112475
0.0140575
0.0080575
0.023025
0.008755
0.0128125
0.0051975
0.036525
0.0026525
0.005935
0.0280125
0.03531
0.0144425
0.0170825
0.0321775
0.01181
0.007805
0.0252475
0.030655
0.008155
0.0295075
0.0422575
0.0122625
0.0232975
0.0036975
0.021185
0.009045
0.002105
0.00338
0.0177375
0.0131075
0.0150025
0.0252525
0.011445
0.0104125
0.0332725
0.00266
0.014365
0.0190175
0.0229475
0.0214025
0.0403925
0.00783
0.0132475
0.0244925
0.022225
0.0244925
0.012355
0.012
0.0226075
0.0171375
0.0052125
0.018875
0.0242275
0.018785
0.029385
0.0086875
0.0071725
0.02656
0.0053975
0.007845
0.0100225
0.02967
0.0123025
0.021705
0.022095
0.033675
0.0331425
0.0111325
0.0347475
0.01278
0.0080275
0.015005
0.0150375
0.00322
0.0203075
0.0017825
0.0121475
0.0131125
0.0211125
0.03324
0.014985
0.031685
0.00695
0.025135
0.0167475
0.0005475
0.0180475
0.0222075
0.007275
0.008085
0.01304
0.0321425
0.0320825
0.039775
3e-05
0.03407
0.0128625
0.0419175
0.0192125
0.00841
0.02381
0.0063025
0.0072525
0.017025
0.0324625
0.00708
0.0169725
0.0175025
0.009035
0.016595
0.012745
0.024105
0.0010175
0.02225
0.013685
0.0073625
0.029885
0.00963
0.004845
0.0442075
0.0188425
0.0219625
0.00344
0.010195
0.03053
0.0215125
0.0226
0.0140675
0.001715
0.0226475
0.0109375
0.0055375
0.0144625
0.0180375
0.030195
0.011545
0.0030675
0.0253125
0.0088525
0.0209675
0.006515
0.002905
0.0199125
0.0093075
0.01985
0.02142
0.0168525
0.0165275
0.01942
0.003815
0.00582
0.0060175
0.012135
0.0185025
0.0367925
0.014975
0.0145675
0.0287775
0.043405
0.0212275
0.0065475
0.0280575
0.01448
0.0251625
0.004275
0.0059625
0.0364525
0.003485
0.02005
0.0125725
0.026665
0.018005
0.0198225
0.0271325
0.0194725
0.023435
0.0084275
0.022775
0.0174025
0.0090725
0.0271275
0.004475
0.0136875
0.000615
0.0048775
0.0051825
0.02803
0.0319975
0.019295
0.01372
0.0167075
0.02632
0.0015925
0.01566
0.0019975
0.014905
0.0031825
0.041255
0.0341625
0.0141175
0.00073
0.001385
0.022585
0.0053425
0.0382675
0.0321425
0.0114225
0.023365
0.0012175
0.0043725
0.0296375
0.01397
0.0284775
0.019465
0.0204225
0.00447
0.0296725
0.0295575
0.017265
0.011
0.015505
0.0263
0.0280425
0.0006775
0.0069375
0.010485
0.0066475
0.015865
0.0149
0.0043225
0.001275
0.028655
0.0297025
0.0031525
0.018705
0.0104125
0.01412
0.003195
0.02561
0.0151775
0.01915
0.0154925
0.0203025
0.01466
0.0061625
0.0224525
0.0125175
0.01351
0.02311
0.0219675
0.005975
0.016815
0.00328
0.0307225
0.02571
0.0177275
0.0095825
0.0172125
0.012305
0.0009875
0.010125
0.0029
0.0197775
0.031375
0.0067225
0.0110925
0.0274875
0.00669
0.0208975
0.0355525
0.0054575
0.0137075
0.0365125
0.01803
0.01676
0.008225
0.0321925
0.03299
0.0287925
0.0176275
0.0234525
0.029715
0.0316525
0.0074075
0.033585
0.023435
0.017325
0.02319
0.0318775
0.0207975
0.0374425
0.00744
0.001625
0.01249
0.0222475
0.0121
0.0199975
0.002375
0.0156025
0.0132375
0.0320475
0.005425
0.002785
0.00402
0.0167975
0.0118775
0.02643
0.0159225
0.01472
0.012405
0.0117
0.0012725
0.008325
0.02439
0.0003775
0.0048625
0.0269
0.016215
0.0043075
0.02406
0.0104025
0.01547
0.0320925
0.015185
0.0340125
0.0296
0.025535
0.0231225
0.009595
0.0261625
0.00563
0.0124175
0.0125225
0.0187325
0.028645
0.001215
0.0153325
0.0078675
0.0042025
0.0123475
0.0002125
0.0224775
0.0320175
0.01956
0.0176275
0.00053
0.0277175
0.0070675
0.023015
0.006575
0.0145575
0.00607
0.0102475
0.018
0.0325675
0.031715
0.03777
0.03181
0.0291375
0.03529
0.0218625
0.030075
0.010085
0.0078125
0.0217975
0.01741
0.0140625
0.0156075
0.040785
0.029585
0.0045475
0.0069075
0.024775
0.0249125
0.02321
0.0241125
0.0207675
0.0046775
0.0200125
0.02072
0.018205
0.0086675
0.00102
0.0017125
0.0154325
0.01122
0.0095075
0.008915
0.0077025
0.02274
0.030705
0.001675
0.0271825
0.0192775
0.0222525
0.0200775
0.0203575
0.0082325
0.021405
0.0162625
0.017865
0.011435
0.0027075
0.0269925
0.018015
0.009105
0.006085
0.0179125
0.0069775
0.0106925
0.0253575
0.0021
0.041835
0.027495
0.01018
0.014215
0.0040725
0.0008675
0.005015
0.0196425
0.004285
0.021935
0.019465
0.01763
0.0283075
0.0255625
0.0157975
0.00114
0.0180625
0.014455
0.0150125
0.0060425
0.034165
0.015495
0.0084175
0.01096
0.0302375
0.0050975
0.02384
0.01391
0.0211875
0.0153025
0.00021
0.0154
0.02911
0.0117775
0.0075175
0.005405
0.03438
0.023675
0.007165
0.004065
0.03077
0.015045
0.0001125
0.010625
0.0245075
0.00677
0.00965
0.0027475
0.0354
0.02218
0.01125
0.011505
0.0157925
0.0317475
0.00549
0.0047275
0.02707
0.017385
0.014315
0.0149875
0.00476
0.01437
0.0099675
0.02297
0.02385
0.01627
0.0130075
0.0231075
0.00496
0.0115825
0.006745
0.016795
0.0035725
0.0107825
0.012405
0.0110225
0.028285
0.0174975
0.00616
0.00267
0.0215675
0.0120475
0.026445
0.01633
0.02209
4e-05
0.0162775
0.006935
0.0065875
0.03437
0.016415
0.0269075
0.0066275
0.018065
0.01338
0.02656
0.032555
0.0003825
0.0214425
0.0056075
0.028365
0.010695
0.0018175
0.005955
0.01722
0.0068925
5e-05
0.0117
0.0069
0.020245
0.0080675
0.004785
0.007405
0.01159
0.02321
0.01385
0.007715
0.0078925
0.008815
0.010495
0.013245
0.01531
0.00619
0.018435
0.0210425
0.0084
0.0227175
0.0047175
0.002175
0.0004125
0.0054725
0.0213775
0.0042725
0.012185
0.011795
0.00374
0.0002475
0.0109925
0.0031775
0.003905
0.0035225
0.02535
0.0295125
0.0186525
0.009645
0.00748
0.03654
0.0026625
0.0273425
0.0125725
0.0047025
0.004675
0.03559
0.0148575
0.02391
0.0135025
0.0171125
0.029455
0.0056125
0.0114725
0.01274
0.0236425
0.032325
0.0114625
0.0311875
0.010485
0.028325
0.00252
0.0374175
0.0198925
0.0283375
0.0040175
0.0141525
0.02602
0.025665
0.03291
0.00125
0.0225975
0.007075
0.0189725
0.0017925
0.0114225
0.01939
0.0021025
0.0043875
0.0197325
0.0228825
0.0243775
0.00434
0.0188325
0.0330425
0.0250375
0.0164825
0.0013725
0.018525
0.031135
0.0320375
0.0252825
0.0199575
0.0251525
0.026025
0.02974
0.01598
0.0077975
0.0059925
0.016015
0.005695
0.023065
0.0097075
0.0136725
0.03032
0.01759
0.0123925
0.0201225
0.00873
0.0195175
0.009285
0.0023775
0.0161125
0.026425
0.0151175
0.0294075
0.0269225
0.01308
0.023115
0.0015575
0.0020375
0.0220225
0.0283625
0.02911
0.01284
0.0009375
0.02821
0.025245
0.0202575
0.0188725
0.01988
0.0095625
0.01484
0.0195725
0.00678
0.028385
0.0019125
0.0068875
0.0209125
0.0050075
0.031555
0.003735
0.0161225
0.0141675
0.006825
0.016935
0.01508
0.00445
0.00477
0.0188775
0.03333
0.01486
0.00348
0.03527
0.00753
0.0040175
0.0024725
0.0108075
0.02253
0.00331
0.0305525
0.003635
0.012025
0.039725
0.001785
0.0034275
0.0256
0.03291
0.0187225
0.0218025
0.0021225
0.01144
0.0057125
0.02101
0.013985
0.0023225
0.01788
0.0134025
0.0215275
0.038015
0.00893
0.03122
0.01978
0.0006025
0.030145
0.0139975
0.0139675
0.0073675
0.0252025
0.01915
0.0288275
0.0120325
0.036565
0.020935
0.004405
0.00825
0.00555
0.01307
0.0076325
0.0069975
0.0117975
0.0293275
0.0304375
0.004745
0.0158875
0.03827
0.0226525
0.0370525
0.003265
0.03342
0.002505
0.0224675
0.0244375
0.02166
0.0018025
0.0063725
0.0195425
0.0163525
0.0180725
0.015965
0.0300025
0.023625
0.001405
0.00274
0.00917
0.0303375
0.0089625
0.01877
0.0074
0.0262025
0.0282425
0.0109825
0.03043
0.0309825
0.0096325
0.0327975
0.028785
0.021395
0.030995
0.001535
0.011585
0.0036475
0.0048775
0.0255075
0.0148825
0.01213
0.02515
0.0269525
0.0068575
0.029795
0.0063725
0.017495
0.0259025
0.0279525
0.0215625
0.0220025
0.015465
0.01135
0.0208775
0.01858
0.0361625
0.02779
0.0220025
0.0046425
0.0306125
0.011855
0.00397
0.03589
0.03185
0.0095625
0.0100125
0.016525
0.022145
0.02172
0.028405
0.0022475
0.00543
0.03353
0.021475
0.008925
0.0158725
0.02678
0.005935
0.0310675
0.0051725
0.02943
1.5e-05
0.0399875
0.0028775
0.0241375
0.0343325
0.00517
0.01775
0.03099
0.021955
0.01528
0.0098375
0.00072
0.0115675
0.002935
0.0172175
0.0039575
0.013215
0.0023525
0.026415
0.03587
0.0417875
0.015385
0.024335
0.014285
0.0153175
0.0244275
0.0267425
0.0001625
0.029055
0.009905
0.0184325
0.0153725
0.0275375
0.008345
0.02909
0.024345
0.0081275
0.0276425
0.0017
0.0312875
0.012265
0.02854
0.016435
0.0101125
0.00407
0.0118
0.0245025
0.003695
0.012795
0.00291
0.00523
0.00907
0.0180475
0.0119975
0.00134
0.013245
0.03284
0.0278475
0.00341
0.021195
0.01492
0.029245
0.0046575
0.0326175
0.029145
0.02058
0.017955
0.018005
0.0245575
0.002495
0.0116275
0.0053325
0.0367925
0.00717
0.017505
0.000985
0.02363
0.0158
0.017205
0.0081225
0.0227175
0.0072975
0.02546
0.02392
0.005035
0.0209925
0.0245725
0.01766
0.029845
0.0257125
0.017385
0.01656
0.0033875
0.025565
0.0025225
0.0022275
0.01494
0.019365
0.017775
0.0110675
0.01616
0.0145125
0.0186575
0.0003125
0.0161325
0.002785
0.01955
0.0343325
0.007055
0.01723
1.5e-05
0.0260375
0.0187025
0.02421
0.0219125
0.00945
0.0070475
0.0019175
0.0219925
0.0081875
0.0323525
0.0245075
0.0057125
0.0170225
0.0184625
0.031735
0.0012825
0.0124675
0.0199725
0.00035
0.023295
0.0185475
0.004825
0.0305825
0.0183825
0.015445
0.015325
0.014125
0.0306975
0.0330775
0.0048025
0.0112975
0.0283725
0.0131375
0.0155775
0.025575
0.0359075
0.0063325
0.018785
0.01214
0.0210775
0.0047475
0.00233
0.0103925
0.010035
0.0139075
0.0102825
0.026935
0.01758
0.027605
0.0013425
0.003185
0.0124675
0.0137825
0.0300075
0.016595
0.0286575
0.0173725
0.0045
0.00906
0.00991
0.011865
0.0413275
0.02125
0.0407825
0.028915
0.024625
0.0047875
0.018625
0.0300425
0.006075
0.0021725
0.024065
0.00157
0.0298225
0.003835
0.0218925
0.0208225
0.0133275
0.0218625
0.0179425
0.0265225
0.009765
0.001035
0.0216825
0.0201225
2e-05
0.00796
0.0110775
0.0216025
0.0200375
0.0314975
0.0090425
0.0076325
0.021205
0.0250625
0.0041675
0.0146375
0.0080725
0.025065
0.01016
0.01216
0.028855
0.003755
0.000895
0.006745
0.01683
0.0126775
0.0052425
0.00241
0.0277025
0.01314
0.003785
0.0073675
0.014155
0.0221375
0.0141375
0.015885
0.027135
0.007565
0.0080575
0.0342475
0.0085675
0.02995
0.0052575
0.01106
0.0109075
0.013925
0.0228625
0.011485
0.005845
0.0229525
0.027585
0.021845
0.03053
0.01063
0.0143325
0.0101575
0.01365
0.013435
0.0243625
0.0094225
0.002205
0.00287
0.023675
0.00918
0.015205
0.0230975
0.0192225
0.02262
0.018185
0.0204525
0.02249
0.0116425
0.0033975
0.00605
0.0123825
0.0219375
0.008825
0.0101025
0.0244975
0.0054725
0.02808
0.01635
0.0089275
0.0249225
0.008295
0.0278175
0.0219975
0.018775
0.01571
0.012845
0.0103225
0.033005
0.003185
0.012865
0.00694
0.0160075
0.0162025
0.0232175
0.0079775
0.0298825
0.0271975
0.009435
0.0197575
0.01815
0.0098175
0.0060475
0.0119625
0.028145
0.0229475
0.02134
0.017015
0.0080325
0.01828
0.025385
0.01297
0.0382475
0.0330525
0.0182975
0.0037225
0.0060275
0.0339725
0.008765
0.000355
0.0064925
0.0251475
0.01002
0.02393
0.00651
0.004845
0.003815
0.009925
0.0233575
0.0165625
0.00188
0.0220075
0.011935
0.0015975
0.0272625
0.0063375
0.0026075
0.013035
0.0234775
0.013425
0.00507
0.0180025
0.023165
0.0276125
0.018835
0.023285
0.03237
0.009845
0.01747
0.0121725
0.0015175
0.01321
0.0067825
0.0271975
0.02026
0.011675
0.0122325
0.0073675
0.018885
0.024695
0.0190925
0.021075
0.0116225
0.016565
0.01609
0.01035
0.0081425
0.021235
0.0293975
0.0058
0.008415
0.00263
0.030665
0.000755
0.0043925
0.02319
0.019675
0.014685
0.01675
0.01779
0.0064825
0.0023125
0.02204
0.01667
0.0014975
0.003605
0.0349475
0.023975
0.0098525
0.023305
0.0256075
0.01817
0.015305
0.0237825
0.0111175
0.01785
0.0101025
0.0109125
0.02468
0.009855
0.01471
0.0224075
0.0249075
0.0053825
0.00655
0.02062
0.00723
0.0195225
0.0011625
0.021975
0.014335
0.0040625
0.014665
0.0041175
0.01071
0.0234225
0.02622
0.017485
0.0062075
0.0125375
0.019465
0.0068825
0.005455
0.00892
0.017205
0.0061475
0.010335
0.003505
0.0230575
0.0265625
0.0123575
0.018135
0.034355
0.0159875
0.03013
0.009575
0.0019625
0.0413325
0.0155725
0.0136675
0.0012775
0.0163225
0.013085
0.0001775
0.0070675
0.0193275
0.0288375
0.00615
0.0232175
0.0255375
0.012645
0.0209525
0.0123525
0.02191
0.0238825
0.015225
0.03573
0.00289
0.0267
0.009375
0.007645
0.0288525
0.01397
0.004075
0.00096
0.00639
0.0266425
0.017105
0.0212525
0.006575
0.0306925
0.021185
0.01407
0.00739
0.028285
0.0088425
0.0076075
0.0187
0.0189625
0.0311625
0.0227625
0.0117725
0.03418
0.00056
0.0155475
0.0057925
0.00027
0.00797
0.0035575
0.0162975
0.02986
0.0026875
0.02677
0.03281
0.01616
0.008975
0.0202425
0.01854
0.014245
0.00395
0.0105725
0.01927
0.015315
0.002145
0.0259925
0.00348
0.0072875
0.00525
0.0073625
0.0020175
0.026295
0.019195
0.0005225
0.0204325
0.028005
0.0156075
0.01681
0.03359
0.0099825
0.0011625
0.0190875
0.0213475
0.0231425
0.0103825
0.00767
0.02849
0.0260875
0.00123
0.012115
0.0229575
0.00309
0.006495
0.00908
0.00605
0.0045175
0.0097125
0.0191825
0.01743
0.024605
0.03069
0.0048875
0.02069
0.0045375
0.03189
0.0107
0.0278175
0.002235
0.004225
0.0116
0.0024525
0.00558
0.01966
0.0234375
0.005065
0.0101675
0.0238875
0.010425
0.0105075
0.0073775
0.0118275
0.01784
0.0264475
0.018445
0.0262575
0.0267375
0.01893
0.012705
0.0067825
0.0017375
0.01831
0.003585
0.0072125
0.0114325
0.0225975
0.0095825
0.018725
0.03009
0.0240575
0.0134575
0.0158225
0.0156825
0.02229
0.02213
0.02268
0.0151825
0.0024975
0.0110575
3.5e-05
0.0029175
0.0006275
0.008065
0.00625
0.0315
0.0050525
0.0104775
0.004255
0.0011425
0.0057475
0.01819
0.0086325
0.002955
0.017745
0.00751
0.0107575
0.0288625
0.016385
0.00418
0.0049575
0.0372675
0.0325775
0.0219725
0.0126975
0.007725
0.0103
0.0045425
0.0012225
0.01904
0.0005275
0.0068975
0.007515
0.018425
0.00794
0.00493
0.008025
0.0056125
0.02188
0.00135
0.03068
0.013965
0.01893
0.02638
0.0022475
0.010055
0.0150375
0.02474
0.00131
0.005585
0.015925
0.02505
0.0138825
0.0050225
0.00474
0.0001225
0.01435
0.00717
0.0068075
0.029495
0.02714
0.016195
0.0128575
0.0211325
0.00374
0.001225
0.0198825
0.021665
0.013105
0.0279825
0.0235325
0.0194225
0.0234225
0.0086875
0.026105
0.02252
0.0334225
0.017125
0.0191925
0.0072
0.0064925
0.0061075
0.0088125
0.021585
0.011345
0.00587
0.00168
0.032605
0.015175
0.010955
0.004545
0.024425
0.022615
0.012095
0.01169
0.0217625
0.029825
0.029455
0.015365
0.026075
0.0374775
0.0197075
0.001505
0.0202275
0.0274275
0.002995
0.000435
0.0201325
0.0014825
0.0218775
0.0153275
0.01299
0.022355
0.02204
0.0136725
0.0197825
0.00269
0.010425
0.008165
0.0124075
0.01055
0.0046825
0.0169375