/*--------------------------------*- C++ -*----------------------------------*\
| =========                 |                                                 |
| \\      /  F ield         | OpenFOAM: The Open Source CFD Toolbox           |
|  \\    /   O peration     | Version:  1.7.0                                 |
|   \\  /    A nd           | Web:      www.OpenFOAM.com                      |
|    \\/     M anipulation  |                                                 |
\*---------------------------------------------------------------------------*/
FoamFile
{
    version     2.0;
    format      ascii;
    class       vectorField;
    location    "0.252/lagrangian/defaultCloud";
    object      U;
}
// * * * * * * * * * * * * * * * * * * * * * * * * * * * * * * * * * * * * * //


24703
(
(3.34742 -0.212428 7.84363e-08)
(7.20672 0.357963 -5.66338e-07)
(6.6252 0.0444501 -4.42671e-08)
(4.24593 2.31901 1.02094e-08)
(3.24128 1.6303 7.9497e-07)
(4.61522 -0.205287 -6.86629e-08)
(6.37008 1.54888 5.13582e-07)
(6.44802 -0.0397316 -2.09444e-08)
(7.34466 -0.258521 -3.82602e-09)
(6.46381 0.550124 -9.50151e-07)
(7.44837 0.135059 -2.35708e-08)
(7.81748 -0.169983 -6.33983e-08)
(7.94331 1.0608 7.75218e-07)
(7.1515 1.23079 -2.63087e-07)
(8.5535 0.427657 -1.48945e-07)
(6.81078 1.39128 4.78361e-07)
(7.023 2.5766 -1.49206e-07)
(7.46046 1.12544 -3.48384e-06)
(7.05754 0.424754 1.69218e-07)
(5.29105 0.188601 -2.83962e-07)
(6.59011 4.00484 -1.00434e-06)
(6.89255 0.817194 -1.72812e-07)
(4.83511 -1.25572 -7.63781e-08)
(7.92282 -0.771744 -2.88266e-06)
(4.33173 0.638556 1.21584e-08)
(9.30889 0.229033 -5.06015e-08)
(9.98457 1.61354 4.26416e-07)
(6.48059 -0.247202 2.39149e-08)
(11.1609 1.85597 -2.00125e-09)
(10.2778 1.1427 2.57991e-06)
(10.8441 0.367261 9.84037e-08)
(9.38436 0.777146 -1.56823e-06)
(9.08141 0.733863 1.85256e-07)
(7.80404 0.955296 6.20233e-06)
(9.03218 0.119042 1.86853e-08)
(8.90437 -0.0786033 4.42132e-08)
(6.74268 1.61465 -6.97165e-08)
(7.20553 0.222434 -2.68501e-10)
(8.17572 0.965419 1.21498e-06)
(3.49767 -0.0214849 -1.09755e-09)
(3.46845 -0.0966681 -1.43583e-09)
(3.39958 0.10766 -2.26178e-10)
(3.86144 -0.215211 7.92964e-19)
(3.14352 0.0141801 -4.28983e-20)
(3.34154 -0.189122 -1.80688e-07)
(3.53309 -0.147236 -1.89251e-08)
(3.46305 0.030226 -1.36532e-11)
(3.4335 -0.00418261 -1.32962e-09)
(3.10893 -0.0167825 1.29115e-10)
(3.66922 0.194136 3.20166e-08)
(3.73562 -0.0435694 -2.6007e-08)
(3.35927 0.0151499 -6.33901e-08)
(3.47565 0.30553 1.4132e-07)
(3.31836 -0.0162591 8.01371e-09)
(3.1783 0.451508 -2.21587e-18)
(3.85284 -0.179171 -1.37939e-07)
(4.10004 -0.0367492 1.67138e-19)
(3.44045 0.0372123 -2.2947e-08)
(3.32016 -0.0254858 -3.35408e-08)
(3.45517 0.0645725 6.8566e-10)
(3.47682 0.0204799 5.2001e-09)
(3.01518 -0.0293733 1.08651e-19)
(3.17025 0.381763 -1.82299e-07)
(4.51963 -0.177413 1.05798e-07)
(3.72135 -0.00418485 -9.01641e-10)
(3.03984 0.0281821 2.94808e-08)
(3.33775 -0.0428246 -5.09323e-07)
(4.15174 -0.0278377 8.48591e-09)
(3.6894 -0.00885081 1.89982e-20)
(3.18853 0.130339 -5.58037e-19)
(3.30514 -0.0131927 2.22593e-08)
(3.49599 0.0740611 2.05511e-09)
(4.07365 0.146647 1.21793e-07)
(3.30566 -0.0107758 1.05304e-08)
(3.48393 0.176675 3.64947e-10)
(3.14977 0.00379538 -1.22871e-20)
(3.96164 0.0473849 3.27602e-07)
(2.34864 0.362809 -9.5543e-19)
(3.53853 -0.00601777 3.37655e-20)
(3.60214 0.00768995 -1.87886e-08)
(3.67812 0.00659385 -3.98545e-08)
(3.65912 0.0439584 -3.41487e-08)
(3.28967 0.0174242 -1.92369e-09)
(3.87925 -0.0358015 1.40201e-08)
(3.35075 -0.00518472 -7.9733e-21)
(2.10451 0.38748 -3.60853e-06)
(2.94179 0.180466 -7.6917e-09)
(3.39977 -0.00628019 -1.88473e-07)
(4.89729 -0.513024 -1.07025e-08)
(3.33902 0.0267867 9.31247e-09)
(3.39528 -0.00278369 -2.30132e-11)
(3.78112 0.105501 -1.51676e-07)
(3.18843 -0.0161227 -4.50817e-10)
(3.25344 0.0320036 -7.99698e-20)
(3.28617 0.072087 2.54164e-19)
(4.24708 0.0591066 -5.4811e-08)
(3.3769 0.0392825 6.6959e-06)
(3.02437 0.201925 -4.41773e-19)
(3.91596 -0.10528 2.5198e-19)
(2.98539 0.17247 6.81721e-08)
(3.56261 0.0983602 -1.09742e-07)
(4.00251 -0.0133941 -2.01431e-08)
(3.71141 0.161091 -4.36681e-08)
(3.35596 -0.0877585 -5.384e-20)
(4.18787 0.0211257 -1.28187e-08)
(3.69164 0.12102 -5.53167e-09)
(4.10151 -0.0838795 -4.30861e-07)
(3.60468 0.173544 -4.56735e-07)
(2.94529 -0.031455 -4.03877e-09)
(3.1049 -0.00366348 1.62168e-10)
(4.43949 0.416095 1.08538e-06)
(3.3207 -0.013332 6.14322e-20)
(3.12143 -0.584264 9.8942e-08)
(2.96645 0.1485 5.01638e-07)
(3.8343 -0.00666721 1.31412e-08)
(3.54215 0.0593592 -6.01886e-08)
(3.90432 0.0291015 -1.17455e-07)
(3.17687 -0.0399779 -9.35078e-09)
(4.11444 -0.359704 -7.22567e-07)
(3.75572 -0.167038 4.26247e-19)
(3.73714 -0.0039791 1.49661e-10)
(4.1645 -0.241809 -2.8156e-19)
(3.68221 0.130207 -1.75753e-06)
(3.27587 0.423557 -3.95009e-07)
(3.35299 -0.0183542 0)
(4.03518 0.0981315 -8.82496e-08)
(4.54334 -0.321193 -1.9631e-07)
(3.3051 0.258598 1.57543e-09)
(3.55835 0.024753 -8.54592e-20)
(3.4924 0.00614291 -1.25435e-20)
(3.80099 -0.0911328 5.36473e-10)
(3.50619 0.155515 -4.95509e-08)
(3.34397 -0.0172732 3.37113e-09)
(3.42654 0.237961 -7.84427e-19)
(4.36959 -0.161734 -8.27437e-08)
(3.9485 -0.078556 2.17851e-07)
(4.13994 0.286787 -4.22065e-08)
(3.96582 -0.000338102 2.02323e-11)
(4.23506 0.0819554 -5.15935e-08)
(5.06142 -0.483081 -4.12242e-06)
(3.37943 0.222917 -2.1027e-08)
(3.26377 0.0178871 1.26082e-08)
(4.19584 -0.0177681 -5.82623e-10)
(3.00052 0.389987 1.31052e-09)
(3.80303 0.0614568 8.45795e-08)
(2.88861 0.510009 1.21923e-05)
(3.56816 0.247872 5.09907e-08)
(3.13073 0.02196 7.07083e-11)
(3.45325 -0.0251945 4.37224e-08)
(3.48879 0.0862139 2.48538e-08)
(3.26764 -0.0371979 -1.80491e-09)
(3.30667 0.0804294 -3.6394e-19)
(3.78743 -0.0612078 3.55762e-19)
(2.94634 -0.0365068 3.3702e-08)
(3.59568 0.00811286 -3.3553e-09)
(4.07905 0.0885211 -2.72174e-05)
(3.75603 -0.061063 1.98638e-19)
(3.21267 -0.0120715 -1.5223e-08)
(4.28758 -0.164192 -3.47205e-07)
(3.23583 -0.000469407 1.01552e-10)
(3.39023 -0.0523463 6.58182e-20)
(3.70736 0.533497 -3.51823e-18)
(3.13665 0.359215 -1.72311e-18)
(3.09282 -0.0823843 0)
(3.08218 -0.0102093 3.77405e-20)
(2.99958 -0.0248443 2.79299e-20)
(3.73623 0.1318 -3.59163e-07)
(3.92277 -0.139236 0)
(4.16683 0.0237815 0)
(3.96974 -0.218963 1.20066e-18)
(4.29953 -0.0104545 3.86163e-20)
(3.58856 0.0112579 1.95184e-09)
(3.39592 0.0164097 -7.79168e-20)
(3.99713 0.0104007 -1.14747e-08)
(3.38832 -0.0170072 3.99354e-08)
(3.94748 0.0699481 -1.37139e-19)
(2.76211 0.154453 1.5879e-05)
(4.13453 -0.155155 3.86195e-08)
(2.34488 1.19586 1.10506e-07)
(4.22206 0.0124385 -3.12168e-09)
(3.29576 0.0336426 -2.12401e-19)
(3.19473 0.0439127 0)
(4.2404 -0.0550219 6.91601e-20)
(3.31747 0.0980988 2.23617e-09)
(3.59879 -0.213934 5.41606e-07)
(3.64998 -0.0185711 1.18596e-19)
(3.90036 -0.0128913 -7.00626e-10)
(3.64088 -0.00442468 2.28955e-20)
(3.73912 -0.0163757 -2.99095e-11)
(4.05957 0.241423 1.75329e-06)
(3.86242 0.212128 -1.01652e-18)
(4.07228 0.00911984 3.63425e-09)
(2.89513 0.406308 -5.21154e-09)
(3.50964 0.199343 -1.98987e-08)
(3.08972 -0.0108461 3.03707e-20)
(3.98134 0.00478944 6.24323e-09)
(2.99964 -0.0374172 1.39878e-07)
(4.15795 0.0206255 -9.15873e-20)
(4.81247 -0.223171 -1.10729e-07)
(3.17022 -0.0113781 -7.80839e-09)
(2.96959 -0.00859958 -3.10576e-08)
(4.31255 -0.103373 6.00868e-09)
(3.23517 -0.00926879 -9.51676e-10)
(4.40963 -0.318585 -1.71303e-07)
(3.40236 0.378864 -1.55945e-18)
(3.52926 -0.0167055 -1.65544e-10)
(3.51212 0.669162 -7.09516e-06)
(4.16229 0.00102593 -1.87639e-21)
(3.50138 -0.21056 3.71615e-19)
(3.51756 0.358265 -1.10923e-07)
(3.30448 0.311598 -1.44778e-06)
(4.5012 0.0108207 1.82818e-09)
(3.76652 0.182644 1.12785e-07)
(3.97158 -0.0108709 4.4227e-08)
(4.19045 -0.188574 -1.37225e-07)
(3.67135 -0.346297 -1.53102e-06)
(4.24599 0.0233732 -3.24233e-09)
(3.63898 -0.0766749 5.27794e-08)
(4.15096 -0.015846 5.99008e-20)
(4.41545 -0.0452697 1.87017e-19)
(4.48618 -0.0432916 -5.93258e-08)
(3.25961 0.0436554 -8.56183e-10)
(3.95764 0.0402094 -5.06738e-09)
(3.65261 -0.0238091 1.8783e-07)
(3.0597 0.0421653 0)
(3.37949 -0.0741321 2.88526e-19)
(3.16427 -0.128721 2.95732e-09)
(3.78239 0.00401221 -2.78304e-20)
(3.92688 0.292201 3.05223e-06)
(4.13211 0.119591 -7.26269e-08)
(3.00921 0.124079 3.53897e-09)
(3.64011 0.0245726 8.97573e-07)
(4.55972 -0.224231 -4.23472e-07)
(3.31624 -0.0673388 3.43135e-08)
(3.3967 0.922725 5.30241e-07)
(3.89338 0.0815875 -1.32588e-06)
(4.11392 0.0414748 1.20208e-08)
(3.95669 -0.0125322 -2.20613e-08)
(3.99314 0.00282744 -2.05572e-09)
(2.1421 0.435425 -9.67864e-19)
(4.9842 -0.769957 2.83994e-07)
(4.07123 0.158225 1.28022e-08)
(4.35427 0.00688062 -3.53096e-09)
(4.15206 0.0369737 -1.50616e-08)
(4.98367 -0.584639 -5.10161e-07)
(3.55785 -0.0199463 5.83724e-08)
(3.65299 -0.0595556 2.70142e-19)
(4.19202 -0.0953393 5.27895e-08)
(3.70527 0.00975754 -2.5832e-08)
(3.08504 0.633116 -1.07175e-18)
(1.50391 0.880864 8.9578e-07)
(3.40741 -0.124994 3.8961e-19)
(3.04137 -0.132104 3.50075e-06)
(3.70205 0.392258 -8.79517e-06)
(3.45055 0.074013 -3.60787e-20)
(4.52074 0.104068 -4.22397e-09)
(3.61061 0.0632482 -2.80626e-08)
(3.50134 0.503861 6.26076e-06)
(3.86689 0.415078 -2.97327e-07)
(4.39769 0.223832 -9.35338e-19)
(3.40557 0.618865 -1.22912e-18)
(3.58242 -0.047063 -1.79883e-08)
(3.85172 0.0154725 5.87834e-07)
(4.38927 0.0260534 -4.90937e-09)
(3.64602 0.561739 -5.11928e-07)
(4.05642 0.00640059 -2.74674e-08)
(4.68166 0.648452 2.80741e-05)
(3.30596 -0.131455 -3.79443e-08)
(4.41961 -0.21328 2.72082e-07)
(4.3225 -0.0346329 8.42342e-10)
(3.87564 0.142917 3.63502e-08)
(3.0926 0.171071 2.77569e-07)
(4.57436 0.172412 -9.83965e-09)
(4.78732 -0.199209 -8.20571e-10)
(5.53776 0.0833337 -9.15317e-09)
(3.32503 0.329401 1.79498e-07)
(3.85287 0.0360806 -2.11062e-10)
(4.75656 -0.231329 -7.04866e-09)
(3.71591 0.0104318 2.68721e-10)
(4.22287 -0.0142699 3.65683e-10)
(4.96903 -0.240431 -3.8404e-06)
(3.21384 0.847595 -5.97953e-08)
(4.24271 -0.261505 -4.57574e-08)
(3.23975 0.0210681 -7.3785e-08)
(3.93384 0.0208904 3.7433e-08)
(4.82787 -0.186229 -1.4738e-06)
(4.11267 0.294513 -3.85781e-09)
(3.90543 0.0310782 -2.81391e-09)
(3.11905 0.591997 -3.44692e-07)
(3.17967 0.538014 -6.43668e-07)
(4.62511 0.138819 -6.37012e-09)
(3.37611 1.06364 3.75603e-06)
(3.03329 0.275866 -8.38227e-08)
(3.68426 -0.582936 1.38171e-18)
(4.14745 0.0364112 -1.53972e-19)
(4.25392 -0.104294 -1.9703e-08)
(4.29998 0.0443183 -8.00342e-08)
(3.59754 -0.00278303 -3.54222e-21)
(3.50446 0.0563926 5.31963e-12)
(3.77555 0.177014 -2.57116e-08)
(4.90552 -0.218167 2.28827e-07)
(3.47671 -0.0287237 0)
(1.53017 0.74129 -2.17104e-08)
(3.55303 0.0405766 5.49638e-08)
(3.15787 0.0576951 -2.37726e-19)
(4.30406 -0.059288 9.64491e-20)
(4.39673 0.0935963 -1.64706e-08)
(3.40587 -0.00405969 1.80054e-20)
(4.04296 0.0417337 3.69823e-08)
(4.30384 0.0171484 7.87674e-10)
(3.90299 -0.102367 3.77626e-19)
(4.81093 -0.394539 -1.67823e-08)
(4.00687 0.0749391 8.82138e-09)
(4.11293 -0.0996912 -4.21924e-07)
(4.23936 0.0871302 -1.65213e-19)
(4.93069 -1.16332 -2.36196e-06)
(3.5561 -0.239572 -2.77212e-07)
(3.91757 -0.275977 -1.28514e-07)
(4.29497 0.100441 5.53174e-08)
(3.12463 0.0270168 -1.11647e-19)
(3.41146 -0.0180705 -4.3183e-08)
(2.98897 -0.0309737 6.31936e-09)
(3.34492 -0.0590022 0)
(4.7384 0.0227063 2.16332e-08)
(3.27117 0.53414 -9.00981e-07)
(3.90758 0.506694 4.36602e-08)
(4.58366 0.0756088 -1.41478e-08)
(3.52859 0.00211557 -1.93009e-20)
(4.20521 0.128 3.70728e-07)
(3.41334 0.0775499 -2.80927e-19)
(4.51177 0.666098 -4.86369e-09)
(4.67659 -0.442111 2.92588e-07)
(4.63998 -0.0127237 -5.79202e-09)
(4.55026 0.0183165 1.04005e-08)
(3.30632 0.0783314 -5.38672e-09)
(4.25249 0.0586232 6.08262e-20)
(4.01849 0.161244 8.5732e-07)
(3.00095 -0.0291267 2.33532e-10)
(4.35088 -0.162886 -3.56774e-07)
(5.49134 0.0343041 8.70111e-09)
(3.34525 0.405717 2.91424e-07)
(3.9581 -0.104997 4.79562e-19)
(3.70383 0.0130575 9.90436e-21)
(2.9544 0.297296 7.00992e-07)
(3.13247 -0.0258156 4.62515e-11)
(3.10993 0.409264 1.75421e-07)
(3.77739 0.0755698 1.23754e-07)
(4.61966 0.0561596 4.02253e-09)
(3.67578 0.0090747 7.3823e-08)
(3.0396 -0.0178052 5.37137e-21)
(3.76751 0.117337 -5.48627e-19)
(4.6426 -0.167478 -4.50277e-10)
(4.04022 -0.107268 2.91212e-08)
(5.26002 0.131843 -9.32577e-09)
(4.85757 -0.0940571 -5.08583e-07)
(4.17725 -0.0409457 6.69162e-09)
(3.46769 1.26276 2.61979e-07)
(3.5305 0.0848021 -1.01283e-07)
(4.49316 0.0241788 -5.29255e-08)
(3.16609 -0.0254966 2.1001e-08)
(4.43767 0.00652083 9.29297e-09)
(4.79364 0.286752 -1.02047e-18)
(4.14087 -0.185224 3.1999e-07)
(4.05699 -0.0601469 0)
(5.63264 -0.885753 7.99675e-07)
(3.81539 0.00532592 -1.35143e-09)
(3.9741 0.648739 -7.6364e-07)
(4.75651 -0.161398 -2.54204e-08)
(4.84387 -0.0641658 3.82688e-20)
(3.66444 0.0171972 1.86795e-09)
(3.09049 -0.371038 2.4658e-07)
(5.15467 -0.272531 -3.52194e-19)
(3.1378 0.898951 4.71567e-08)
(4.18616 0.106994 1.89869e-07)
(4.32976 -0.00928694 1.18398e-08)
(5.4538 -0.502484 6.51298e-08)
(4.33645 -0.575248 2.28365e-07)
(4.40708 0.132188 -2.23181e-07)
(3.57271 1.13019 3.04804e-08)
(4.06663 -0.19794 2.69106e-07)
(3.76109 0.105763 8.19431e-07)
(4.79741 0.223663 4.71975e-08)
(3.26225 -0.0318662 4.1438e-10)
(4.57437 0.0236729 -8.87695e-08)
(4.5411 0.0347798 2.30892e-07)
(4.18946 0.126839 -4.49474e-19)
(3.45249 0.302864 -7.14054e-07)
(4.61838 -0.341523 -1.62406e-05)
(2.99656 -0.0327782 1.13037e-10)
(3.16526 -0.506468 -5.78794e-19)
(4.54453 0.0600544 -1.98229e-08)
(4.67509 0.0321014 -1.15993e-07)
(4.34828 -0.586634 3.49784e-18)
(3.70904 -0.0490719 -2.81267e-09)
(4.24509 0.404118 3.88087e-08)
(3.85883 0.235587 4.37629e-07)
(4.05993 0.0221508 -3.04887e-09)
(4.90479 0.0787258 -2.40023e-19)
(3.93106 -0.170843 1.68399e-08)
(4.30778 -0.127641 1.38597e-19)
(4.35672 0.00534803 9.0094e-09)
(4.76581 -0.287117 -4.17913e-08)
(4.91455 0.0879678 1.30092e-09)
(4.34253 0.403733 -6.6819e-07)
(4.06355 0.00447711 1.60404e-09)
(3.77389 -0.151227 2.26127e-19)
(4.93731 -0.0896552 1.66154e-08)
(4.13343 0.409595 -1.05924e-06)
(4.56615 0.0510143 -6.43156e-08)
(4.63968 -0.0882062 -4.70633e-08)
(3.53891 0.216825 -5.84177e-20)
(3.09734 0.0496795 -1.81518e-08)
(4.02794 0.267698 1.71048e-07)
(3.38534 0.085108 1.04793e-08)
(4.40919 0.08923 -4.05329e-09)
(3.91163 0.274717 -6.69028e-08)
(4.37737 0.12482 8.83848e-07)
(4.45473 0.139538 -3.89406e-19)
(5.74644 -0.74147 3.74832e-06)
(4.5035 0.07351 1.98997e-07)
(3.95196 -0.0967187 3.96663e-19)
(4.19972 0.0827022 5.59864e-08)
(3.79204 0.43374 3.18216e-108)
(4.6007 0.0354599 2.50852e-08)
(3.0883 -0.0336027 -2.40804e-08)
(4.23041 0.781441 -4.33945e-06)
(3.24697 0.107031 6.29798e-10)
(4.16629 0.651843 -4.49091e-07)
(3.37886 -0.241394 1.48699e-18)
(4.16567 0.068181 6.49587e-10)
(5.0261 -0.0636489 7.65738e-20)
(4.705 0.15356 2.42128e-07)
(4.8312 -0.0685296 -2.74436e-08)
(4.17263 -0.290233 8.41469e-09)
(3.69458 -0.070574 9.13084e-20)
(4.30108 0.0672247 -1.85305e-05)
(4.57405 0.118121 3.65577e-06)
(4.61188 0.570255 -2.6595e-08)
(3.43857 -0.243851 -1.42917e-19)
(3.37481 0.290066 -1.23091e-18)
(4.53603 0.181145 5.49265e-07)
(3.98023 0.0386949 1.92453e-08)
(4.71421 -0.0476447 -3.98707e-08)
(4.66204 0.0125658 -6.616e-08)
(2.93605 -0.0359801 -4.18943e-08)
(3.91096 0.124877 3.72092e-07)
(3.52938 0.0266159 -9.41763e-20)
(3.393 -0.0568006 6.16261e-33)
(4.64493 0.253144 -1.68363e-09)
(2.74842 0.0712808 -8.44781e-21)
(3.11334 0.516451 3.87999e-08)
(3.78629 0.376046 -3.44645e-08)
(4.06021 0.0530232 -3.7938e-09)
(4.05144 -0.0563553 -7.24496e-08)
(4.26292 0.0300726 -1.31969e-21)
(4.85188 0.0303849 -4.57253e-08)
(3.88404 0.0088238 -2.64844e-09)
(3.72861 0.81169 5.36146e-134)
(4.48983 0.271129 -1.32855e-18)
(4.34549 0.318125 -7.97771e-19)
(3.79053 0.0489938 -2.34851e-19)
(4.26677 -0.19899 -2.18536e-09)
(3.76251 0.479215 -9.09845e-19)
(4.79379 -0.153455 -7.72519e-08)
(3.97775 0.0245735 3.55023e-08)
(3.72889 -0.484084 3.16087e-18)
(4.11234 0.151778 4.43745e-08)
(4.24272 0.203831 -1.18296e-07)
(3.73279 0.250987 -4.1357e-19)
(3.84029 0.0988523 6.49145e-08)
(4.404 0.380425 1.91405e-07)
(5.13094 -0.0710306 -2.77395e-08)
(3.4794 0.0902687 -2.39369e-19)
(3.54452 -0.0569185 -4.22865e-08)
(4.6237 -0.514703 8.81432e-07)
(4.90586 0.000532345 -2.58586e-11)
(4.55246 0.0163607 2.43746e-10)
(4.11436 -0.0826794 -1.8737e-08)
(5.56523 -0.504581 -1.95842e-07)
(3.45134 0.797807 6.89698e-07)
(3.07974 0.0894355 -6.67023e-08)
(3.84833 0.429726 2.00893e-07)
(3.55314 -0.0164499 1.81534e-10)
(4.67339 -0.138748 -1.46545e-09)
(3.36806 -0.391951 0)
(4.65172 0.0164205 -1.61749e-08)
(5.63649 0.10675 1.65648e-07)
(6.62898 -0.382902 -7.63416e-09)
(5.18086 0.311696 -6.16255e-08)
(4.62459 -0.216978 7.08018e-08)
(4.02955 -0.299871 -4.71336e-08)
(3.5175 -0.00889444 2.3234e-08)
(4.25319 0.475119 -2.39576e-06)
(4.88376 -0.0596816 3.83094e-07)
(3.77894 0.0417462 2.12294e-09)
(5.97205 -0.942153 6.73555e-07)
(3.8915 -0.0109735 2.98664e-09)
(4.19975 0.270527 -1.06619e-06)
(4.72951 -0.0521549 -2.32575e-07)
(4.95838 -0.633602 2.23043e-06)
(3.43527 0.00565413 -7.66654e-21)
(3.65682 0.311028 0)
(3.95972 -0.107501 5.36239e-08)
(3.89878 -0.249536 0)
(4.21896 0.0249929 4.87048e-08)
(5.19498 -0.124415 -2.13361e-07)
(4.96674 -0.489641 2.66934e-07)
(4.68431 0.141969 8.31359e-08)
(3.61491 0.0256385 -2.21874e-08)
(4.26208 0.12649 6.51551e-07)
(5.02721 0.0486212 -9.45585e-08)
(4.96611 0.170146 9.19082e-08)
(5.23292 0.779142 -1.07829e-06)
(4.53199 -0.0532763 1.25902e-19)
(5.0802 0.100872 -1.3459e-07)
(4.83325 0.0070226 -1.9813e-20)
(4.55205 0.965874 -6.75217e-07)
(5.72558 -0.63942 2.70513e-06)
(3.44432 0.206023 2.25674e-08)
(5.05277 -0.0870787 1.15504e-08)
(5.24437 0.549251 3.39708e-08)
(3.13939 -0.045686 4.43613e-08)
(4.04489 0.550708 2.57478e-07)
(4.08863 0.485418 3.45919e-07)
(4.32034 0.236172 7.04217e-07)
(5.44538 -0.277556 -8.9245e-08)
(4.59346 -0.582483 3.97943e-08)
(3.65719 -0.0847868 -1.12256e-07)
(2.93358 0.299928 -1.27287e-07)
(4.12245 -0.214648 9.68703e-08)
(3.84984 0.143986 -6.35851e-06)
(4.48424 0.289424 1.43767e-07)
(3.24 0.391801 1.15362e-06)
(4.89448 -0.00150932 4.49378e-21)
(3.5691 -0.247471 -7.29687e-10)
(4.65847 -0.0451383 4.64302e-08)
(3.31885 0.00313279 -2.536e-10)
(4.95141 -0.0726284 1.85473e-19)
(4.38314 0.651523 8.38928e-07)
(4.8893 0.0593133 -1.88515e-08)
(3.37296 -0.0962286 -1.14541e-19)
(5.06495 -0.248899 -1.68205e-06)
(3.21121 -0.0116364 2.16351e-09)
(4.77966 -0.00579314 4.08892e-11)
(3.79276 0.49855 -2.49318e-09)
(4.97924 0.131467 -9.89301e-08)
(5.26392 -0.419153 2.39012e-07)
(4.26044 -0.117109 -4.52384e-09)
(3.97106 -0.161644 7.48455e-19)
(4.60474 0.139443 -1.12237e-07)
(3.65233 -0.0194183 -3.60268e-08)
(4.05255 -0.118603 0)
(4.68756 -0.0788481 -3.64194e-08)
(3.46877 0.00062453 7.92999e-10)
(5.10044 -0.159432 -2.67395e-08)
(4.55553 -0.242877 -3.36514e-19)
(4.33341 0.88458 -1.36752e-05)
(4.71558 0.079561 1.66254e-08)
(4.73751 -0.0424178 3.41666e-20)
(3.88838 -0.0801804 -1.18104e-08)
(4.29399 0.226491 -1.75249e-07)
(5.22968 -0.35347 6.92441e-08)
(4.73506 0.22719 -7.16366e-19)
(3.26995 -0.0317354 0)
(4.06104 0.568337 -2.77695e-18)
(6.41036 -0.86753 4.37294e-18)
(4.90881 -0.233384 3.0725e-07)
(5.8098 0.229112 -2.62736e-07)
(4.03605 -0.0802374 8.53508e-09)
(5.42683 -0.18757 -1.21936e-07)
(4.18753 0.344561 -6.43401e-07)
(4.72553 0.143462 -3.4565e-19)
(4.83296 -0.0577386 -2.59264e-07)
(3.70492 0.219448 1.58201e-06)
(5.19679 -0.387106 2.6289e-07)
(3.62116 -0.168491 1.23906e-19)
(3.87748 0.0796793 8.14828e-09)
(3.12968 0.0336882 -1.38548e-19)
(4.50407 0.00909605 -2.83988e-09)
(3.73505 -0.00069377 2.89355e-21)
(3.52282 0.474223 -1.59322e-07)
(3.49675 0.274278 2.00516e-07)
(3.55506 0.00229876 -7.35848e-09)
(4.67948 0.115969 8.39554e-07)
(4.95919 -0.052487 -5.33164e-20)
(3.14421 -0.139989 7.37706e-09)
(6.10012 -1.10168 2.74582e-06)
(3.60126 -0.00117754 0)
(3.98419 0.354598 -1.20635e-07)
(4.66871 0.165789 1.42059e-08)
(4.89693 0.120045 4.05852e-08)
(4.66523 0.0299703 -9.94751e-10)
(3.97277 0.0218304 1.79673e-09)
(4.57782 -0.400629 -2.53357e-07)
(3.4868 -0.106245 8.72169e-20)
(3.19825 -0.0437141 5.344e-20)
(4.7497 0.162509 2.48386e-09)
(3.19615 0.0956154 -4.4952e-19)
(5.06271 0.0668622 9.26081e-08)
(3.81983 0.286682 -9.51255e-07)
(4.05082 0.0861394 -3.15175e-19)
(4.69893 0.0346572 4.14361e-10)
(4.529 0.416152 2.96063e-06)
(3.38647 0.147152 -1.47035e-07)
(5.32109 -0.234883 3.4908e-09)
(3.61607 -0.211098 -3.17354e-09)
(5.03722 0.175118 -5.29187e-19)
(3.59353 0.0654691 -2.10326e-19)
(4.10254 0.278207 0)
(4.32181 0.141844 -1.15673e-07)
(5.97252 0.208305 -1.5169e-07)
(4.49612 0.218489 -2.9878e-08)
(4.66607 -0.184661 1.39186e-09)
(3.81489 -0.0116273 3.46615e-20)
(5.04101 0.002353 1.09526e-09)
(2.37938 0.878498 -4.31688e-06)
(3.27689 0.0749462 8.33574e-20)
(4.3697 0.0424222 -3.76954e-08)
(4.69318 0.612026 9.72122e-07)
(5.12321 -0.305318 -2.58118e-08)
(2.87485 0.471727 -2.2135e-07)
(5.17991 -0.0428344 1.80678e-19)
(5.47807 -0.243299 4.22435e-19)
(4.21523 -0.0169963 -3.03258e-10)
(4.13709 0.0295572 -3.4293e-07)
(3.56246 -0.741023 -2.02465e-06)
(4.74178 0.131935 6.43464e-09)
(3.70109 0.03809 -3.37032e-08)
(4.7132 0.0517615 -3.08408e-09)
(4.93278 0.445152 1.19146e-06)
(4.9885 0.0868373 -1.646e-09)
(3.42311 0.00943789 -2.94505e-08)
(4.49653 0.135918 -7.36746e-09)
(4.67401 0.0838481 5.73948e-08)
(5.09807 0.164051 1.50342e-08)
(3.19553 0.145869 0)
(3.69278 0.862371 7.35149e-19)
(3.50709 0.43389 -1.87654e-18)
(4.72067 -0.127814 -6.49871e-09)
(4.62661 0.155784 0)
(3.99173 0.290487 7.0954e-07)
(3.06645 0.610653 -5.84681e-07)
(4.32077 0.344237 -3.7844e-08)
(5.22621 -0.00197013 3.01137e-09)
(3.06645 0.573398 -1.2906e-18)
(5.06285 0.00648394 -3.14117e-09)
(3.9715 -0.181914 7.11467e-19)
(4.18982 0.327049 -9.36926e-08)
(3.74023 0.706655 -5.23223e-20)
(4.26946 0.0236059 2.61286e-08)
(4.33296 0.0561636 -1.06456e-08)
(4.98493 0.071062 -3.21832e-08)
(4.68673 -0.0325606 2.24347e-08)
(4.39168 -0.0293626 -3.55604e-08)
(4.86207 0.391103 -9.17371e-07)
(3.77331 -0.0930002 3.44895e-08)
(5.04451 0.0275996 -1.52196e-19)
(4.70342 0.228801 6.38597e-07)
(4.20972 0.227613 4.92312e-19)
(3.19554 -0.0251164 -3.99882e-20)
(3.2854 0.725829 -2.38542e-18)
(4.3853 0.704525 2.07469e-06)
(4.6414 -0.306869 2.09051e-07)
(4.15928 0.0192402 -1.79417e-19)
(5.22014 -0.0843048 1.97277e-19)
(4.5326 0.0750354 -8.76713e-09)
(6.08229 -0.671753 1.93319e-07)
(4.64027 0.0964422 -1.78452e-09)
(4.75045 -0.108575 1.28794e-08)
(3.17338 -0.029544 -4.10878e-08)
(3.96361 0.0729083 -4.48826e-09)
(3.59552 -0.0905994 5.52805e-09)
(3.0378 -0.027289 1.21661e-07)
(4.94126 0.164344 -6.74402e-07)
(4.8825 0.276582 -2.53925e-08)
(4.52662 -0.00081955 2.14833e-48)
(4.29647 0.216029 0)
(4.59201 -0.394605 4.31159e-09)
(4.16292 0.00423342 0)
(3.689 0.0250817 -1.29078e-07)
(3.15588 -0.156693 -1.10904e-19)
(5.13644 0.0448225 1.1005e-08)
(3.35439 -0.010564 -2.74334e-08)
(4.52124 0.279955 1.16772e-07)
(4.47993 -0.040052 -1.34918e-07)
(5.74429 0.0725078 1.10406e-08)
(3.59649 0.382166 9.54441e-19)
(4.77665 0.270335 7.42561e-07)
(5.04831 -0.208972 2.90838e-09)
(4.52384 -0.000974063 2.78607e-21)
(4.36251 -0.208158 -2.00518e-07)
(5.35232 0.291673 -7.88399e-08)
(3.58358 -0.0932437 1.93128e-19)
(4.65012 0.171584 -8.65094e-19)
(3.24599 0.355451 -5.12949e-07)
(3.11975 -0.047757 0)
(3.94294 0.468762 7.10108e-06)
(5.31821 0.0280223 -3.76861e-21)
(4.56663 0.0232058 -2.05235e-07)
(4.67819 -0.185149 -1.83365e-07)
(5.0826 -0.00337912 -5.47209e-09)
(4.21387 -0.289204 -4.96689e-07)
(4.49175 0.859311 4.03412e-06)
(3.40652 -0.363881 -3.84941e-07)
(4.30572 0.4076 1.53318e-06)
(4.28382 -0.0258701 -3.29535e-08)
(4.84889 0.094296 1.65932e-09)
(3.80514 0.0616002 -4.34635e-09)
(4.52379 0.137433 -2.85738e-09)
(3.71417 -0.0395631 2.87641e-19)
(3.70525 0.317615 -6.41172e-08)
(5.07488 0.112873 4.56967e-06)
(4.2599 0.0760785 7.58132e-09)
(5.22859 -0.00541745 -3.38354e-08)
(5.08554 -0.190301 -3.50456e-08)
(5.79 0.464214 4.04682e-07)
(4.78553 0.0911063 -2.2462e-19)
(5.08352 -0.134188 -1.08887e-08)
(3.44369 0.0977256 6.86371e-10)
(3.63039 -0.236901 8.72111e-09)
(4.60073 0.00867207 -9.19681e-09)
(4.56318 -0.0265814 -3.7627e-06)
(4.42169 0.518745 -2.74222e-18)
(3.62146 -0.0518974 2.10699e-19)
(3.41446 -0.0727288 3.355e-19)
(4.71525 0.354109 -4.71654e-07)
(5.19079 -0.36966 8.98453e-19)
(2.90093 0.469235 -8.37016e-09)
(3.8143 0.0554311 -1.47244e-07)
(4.06673 -0.666832 -1.17434e-06)
(5.09231 0.11872 -3.24156e-19)
(3.9239 0.616538 -3.59812e-06)
(3.80302 -0.29525 -4.30047e-10)
(4.83492 0.0768485 -1.47629e-09)
(5.04717 -0.371761 -9.53845e-07)
(4.18595 0.587378 -3.65468e-07)
(4.77247 1.25272 -4.27299e-06)
(3.80403 0.0771741 2.84754e-06)
(4.93678 0.0737338 -1.20947e-07)
(6.54813 -0.867612 -1.51349e-07)
(4.49417 0.139793 1.20355e-19)
(4.83313 0.0361472 7.98823e-09)
(3.13814 -0.21045 -9.23833e-07)
(4.61413 0.571471 4.53469e-07)
(5.10954 -0.140502 8.21496e-19)
(5.18564 0.0686876 -2.14371e-19)
(5.81052 0.00338785 -1.41862e-20)
(4.34059 -0.551326 7.28331e-09)
(5.19144 -0.128213 1.27848e-09)
(2.9336 0.405993 -3.04877e-06)
(4.58982 -0.190607 -9.16963e-09)
(4.14435 0.539859 -8.60942e-08)
(3.77719 0.193822 -9.74779e-20)
(3.90057 0.212321 1.44794e-07)
(4.81523 0.0782241 3.73038e-08)
(3.09722 0.14676 3.44946e-09)
(4.68127 0.297634 1.20715e-07)
(5.35048 -0.274549 -5.70454e-08)
(3.07075 0.0395828 0)
(3.93046 0.082068 6.97572e-09)
(5.18785 -0.088732 -1.4432e-08)
(5.26231 -0.0527888 -4.24576e-08)
(5.17212 0.0129831 -2.58199e-09)
(4.82702 0.370273 -2.12171e-08)
(4.17613 0.0741869 -3.83382e-08)
(3.92231 -0.251896 2.06015e-19)
(3.89664 0.0206829 1.2076e-08)
(3.58928 0.0834174 -4.80559e-08)
(3.90171 -0.00999342 2.01615e-20)
(3.05713 0.780934 2.80521e-06)
(5.36321 0.15979 -6.40814e-08)
(4.49628 -0.820205 3.79772e-18)
(4.41761 0.210635 1.69232e-06)
(3.70978 -0.0864907 2.6165e-08)
(5.29749 -0.000708271 4.28558e-23)
(3.99414 0.486991 8.71509e-07)
(4.24575 -0.0419374 1.62251e-08)
(4.77409 -0.461519 -3.60812e-08)
(4.5606 -0.137046 -6.12656e-09)
(4.61113 0.164027 -9.26281e-07)
(4.3843 0.77602 3.08402e-08)
(3.28463 0.00872065 0)
(5.45624 -0.178485 -2.08311e-08)
(4.72421 0.359147 -3.69478e-08)
(4.31644 0.253506 4.84998e-07)
(4.47167 0.04096 -4.29049e-09)
(4.9194 -0.10111 4.73748e-08)
(3.15608 -0.0198348 5.61023e-08)
(3.96597 0.1021 -1.33535e-09)
(4.54094 0.0721354 5.41903e-08)
(5.47976 0.00710171 7.25677e-11)
(3.96503 0.00943792 0)
(5.02474 -0.273025 -3.30037e-06)
(5.28415 -0.139309 3.68456e-09)
(4.21783 -0.395596 -6.15103e-09)
(3.96235 0.338842 -1.68543e-09)
(4.95979 0.130787 1.02024e-06)
(4.14949 -0.010595 1.63148e-08)
(4.29903 0.0266308 3.32267e-08)
(5.33536 -0.0952499 2.38021e-07)
(5.4322 -0.332044 1.35785e-18)
(4.66386 0.0879934 5.8923e-08)
(4.86715 0.250663 -7.00088e-08)
(5.32162 -0.0509678 2.2755e-19)
(4.12757 0.0341403 -1.13669e-19)
(4.93583 0.141399 3.68043e-07)
(4.96868 -0.0618904 -5.22469e-08)
(5.53765 -0.821471 -2.40425e-18)
(5.20397 0.546404 -7.72349e-19)
(4.40791 0.0768202 4.87925e-09)
(4.98094 -0.0542313 2.77954e-07)
(4.71432 -0.233984 5.91081e-19)
(4.65865 0.0593544 3.57518e-07)
(5.0387 -0.0786884 -1.05774e-09)
(3.82993 0.0906974 -6.08965e-19)
(5.24126 -0.047428 -7.55161e-09)
(4.83183 -0.320566 0)
(3.75555 0.606939 3.61319e-08)
(3.60406 0.020843 -1.56424e-06)
(4.92522 -0.0561442 3.42128e-08)
(5.34727 0.151116 4.01413e-07)
(5.1027 0.135235 -1.12479e-08)
(5.37512 -0.0360222 1.43458e-08)
(4.6935 0.846591 -9.92471e-19)
(5.51452 -0.433073 4.07856e-08)
(4.29817 0.0725831 4.1872e-07)
(3.49781 0.50854 -6.27086e-08)
(5.12613 -0.187675 -6.58179e-09)
(4.44973 0.0546951 -8.29282e-08)
(5.30617 -0.0537494 -6.36535e-08)
(5.12243 0.0407063 8.29324e-10)
(5.05887 -0.535052 2.24311e-18)
(4.04431 0.0934531 4.82746e-08)
(4.64738 0.0427234 1.23853e-10)
(3.2928 -0.00491488 -3.0971e-11)
(4.16379 0.114765 8.21877e-09)
(5.1079 0.0308791 1.49478e-07)
(2.91589 -0.0421158 -2.0561e-07)
(4.55257 -0.181827 1.00562e-10)
(4.46964 0.193018 -5.49279e-19)
(4.18826 0.0481476 -9.87581e-20)
(5.62516 -0.324151 -7.28972e-08)
(4.41815 0.00503899 -6.12986e-10)
(5.18478 -0.186698 9.59377e-08)
(3.99402 1.69251 1.88731e-06)
(4.17556 -0.0415685 -2.2029e-09)
(3.34508 -0.0243907 -3.17924e-08)
(4.07649 -0.0014049 -3.48576e-09)
(5.12392 0.103539 2.35228e-08)
(3.32395 0.0328053 -4.91201e-09)
(5.15484 -0.143734 -8.63687e-08)
(2.97619 0.134652 6.89394e-08)
(4.20928 0.0152811 3.54192e-08)
(4.67645 0.0722597 4.80519e-09)
(4.18361 0.430504 -7.68462e-07)
(4.7414 0.47807 -2.98076e-19)
(5.12894 -0.059952 6.12382e-09)
(5.43569 -0.080028 -1.4641e-07)
(4.29966 -0.153872 -2.34042e-19)
(5.85379 -0.296888 1.40852e-06)
(4.26197 0.110109 1.06664e-07)
(3.97449 -0.0380911 1.99222e-10)
(3.91257 -0.757439 4.90683e-08)
(4.88353 -0.356345 -4.31975e-08)
(3.8025 0.9817 -2.76903e-06)
(4.34337 -0.0389243 4.50096e-08)
(4.68888 0.152257 -3.3317e-08)
(4.92468 0.0148659 1.00219e-08)
(3.03116 0.0209807 -5.36182e-08)
(4.94683 0.066272 2.60109e-10)
(5.13272 0.643177 -5.57259e-09)
(3.2336 0.00761758 -9.71282e-09)
(3.03409 -0.0311943 -1.68951e-08)
(4.9881 0.0257311 4.67204e-09)
(3.89857 -0.159584 2.29586e-19)
(5.09162 0.194471 -6.76284e-07)
(4.24939 0.0420865 1.65859e-08)
(5.03913 0.315075 -3.3646e-08)
(4.03347 0.358931 1.1117e-07)
(3.00863 -0.00588728 0)
(3.46649 0.315516 -8.54331e-08)
(4.42142 0.282539 -1.5136e-09)
(3.29094 0.000215634 4.45895e-10)
(4.5155 0.497227 -2.40524e-08)
(3.6773 -0.209454 1.26424e-08)
(3.2699 0.0494648 9.46457e-21)
(4.20593 0.045362 7.22386e-08)
(3.9624 -0.129037 -2.28437e-08)
(4.37702 2.01007 -9.40311e-06)
(4.42238 0.269152 -1.50322e-09)
(3.64274 0.454807 2.34711e-08)
(5.08418 0.00588283 1.05721e-09)
(3.72036 -0.0514318 2.68542e-07)
(5.53684 -0.800585 1.00573e-06)
(4.5624 -0.215436 -9.66567e-09)
(4.32379 -0.157656 7.27375e-19)
(3.33127 0.0119054 -1.50392e-07)
(3.50943 -0.00822271 -1.04865e-33)
(4.54007 0.103045 7.48286e-08)
(4.99419 0.0820778 -8.47304e-09)
(5.49786 0.0961957 1.29411e-08)
(5.06691 0.0286753 -6.04255e-20)
(4.93868 0.0738125 -6.9799e-10)
(3.82203 0.490709 3.61215e-08)
(5.6468 -0.184586 -2.27586e-07)
(3.75729 0.0733775 9.02187e-20)
(4.64088 0.350404 0)
(3.62989 0.388056 3.80959e-07)
(4.64535 -0.0622684 3.55228e-20)
(5.05822 -0.0135356 3.20497e-09)
(4.78176 0.203415 -4.48187e-07)
(3.27801 0.0766582 -4.15234e-19)
(4.91479 -0.337247 1.15118e-07)
(5.14454 -0.177027 -5.83998e-08)
(5.17804 -1.10126 -1.96619e-08)
(5.20219 0.151919 -4.2957e-08)