/*--------------------------------*- C++ -*----------------------------------*\
| =========                 |                                                 |
| \\      /  F ield         | OpenFOAM: The Open Source CFD Toolbox           |
|  \\    /   O peration     | Version:  1.7.0                                 |
|   \\  /    A nd           | Web:      www.OpenFOAM.com                      |
|    \\/     M anipulation  |                                                 |
\*---------------------------------------------------------------------------*/
FoamFile
{
    version     2.0;
    format      ascii;
    class       vectorField;
    location    "0.252/lagrangian/defaultCloud";
    object      Uturb;
}
// * * * * * * * * * * * * * * * * * * * * * * * * * * * * * * * * * * * * * //


24703
(
(0.0472915 -0.0193439 -0.00771948)
(0.269243 -0.606694 -2.42802)
(-0.0133245 -0.00186103 0.00954682)
(0.816638 2.4631 -0.0908995)
(-0.763068 -0.929957 0.104602)
(-0.186807 -0.0746799 -0.420101)
(1.02937 1.56562 0.659088)
(-0.132615 -0.122212 -0.0722951)
(-0.434312 -0.397515 -0.407537)
(-0.356476 0.45587 0.810383)
(-0.018364 0.0107239 0.0191203)
(-0.303143 -0.378807 -0.0339142)
(0.0848027 0.91896 -0.0945211)
(0.435742 1.14409 0.205344)
(-0.19601 0.252823 -0.236037)
(-1.18971 1.24487 -0.254154)
(-1.22014 2.4899 -0.189873)
(-0.750982 0.967934 0.0642255)
(0.104094 0.327324 -0.102325)
(-0.14778 0.15392 -0.0234802)
(-1.16648 3.89717 1.97577)
(-0.0924412 -0.0445384 -0.452478)
(-2.32669 -1.81041 -0.235292)
(0.123941 1.09585 2.46563)
(-0.759284 0.754228 -0.136048)
(-0.0664313 -0.0794245 0.0377743)
(1.51865 3.86922 -3.37142)
(-0.587166 -0.380335 0.426451)
(1.9055 1.69838 0.00208724)
(1.17439 0.958513 0.288292)
(1.92739 0.202712 -1.50415)
(0.0134494 0.585067 0.593101)
(-0.398114 0.29976 0.248473)
(0.208713 0.00682034 -0.0907302)
(-0.131765 -0.0629994 0.161503)
(-0.259216 -0.264068 -0.228187)
(-0.194249 1.50829 0.479799)
(0.00373007 0.12408 -0.0109947)
(2.90691 4.76702 2.46992)
(0.0506989 -0.01756 0.0170022)
(0.387801 -0.0736946 0.348239)
(0.120087 0.119136 -0.657494)
(-0.0754329 -0.228275 -0.224275)
(0.00443992 0.0329125 0.0249559)
(-0.227746 -0.191326 0.293197)
(-0.0133341 -0.147664 0.163345)
(-0.0115419 0.0330192 0.107748)
(5.66592e-05 0.000268494 0.000129913)
(0.00587181 0.00348714 0.0060113)
(-0.353047 0.179487 0.278524)
(-0.0220096 -0.0508358 -0.0696713)
(0.0479721 0.0252638 0.175613)
(0.127702 0.313663 0.0887759)
(0.00663045 -0.00634486 0.000309621)
(0.0132836 0.46959 0.105807)
(-0.0789074 -0.193296 -0.199372)
(0.171785 -0.049388 0.146549)
(-0.0115173 0.0405877 -0.00566449)
(-0.0165748 -0.0167068 -0.0178871)
(0.156149 0.0750529 0.102282)
(0.0231293 0.023153 0.0246154)
(-0.00295482 -0.00168431 -0.00635888)
(-0.458451 0.378853 -0.162032)
(0.864644 -0.184685 -0.592008)
(-0.0820662 -0.0155678 0.0224582)
(-0.321411 0.0348805 0.102193)
(-0.113606 -0.039452 0.0860894)
(0.219442 -0.0399591 0.218771)
(0.00937327 -0.0156199 -0.0103744)
(-0.135913 0.139793 0.0613744)
(-0.00343914 -0.00319151 -0.00534786)
(0.0108967 0.0754671 -0.0323124)
(0.306487 0.138695 -0.337248)
(0.0035147 -0.000173213 0.00653002)
(-0.174397 0.170711 0.00908732)
(-0.00273618 0.022209 -0.00268201)
(0.0676111 0.0362354 -0.0200431)
(-0.830732 0.379801 -0.0471626)
(-0.00782767 -0.00666435 -0.00368834)
(-0.0133173 0.00334254 0.00818328)
(0.000525801 0.00089528 0.00325541)
(0.106697 0.043265 0.0770225)
(-0.0299856 0.0269719 -0.0320984)
(-0.000337289 -0.0474671 0.12863)
(-0.0250387 0.00145337 0.00578687)
(-1.21248 0.397162 0.0727085)
(-0.163195 0.202217 -0.0686404)
(-0.00479366 -0.000812766 0.00278349)
(0.347458 -0.540241 0.148963)
(-0.0796558 0.0309534 0.0077963)
(-0.0461216 -0.000142669 -0.0613587)
(0.0199274 0.0957933 -0.0424671)
(-0.000309029 0.00036308 -0.000798072)
(-0.0740822 0.0413735 -0.0735347)
(-0.0432549 0.0811313 -0.101643)
(0.128915 0.0422301 0.0549551)
(-0.0106168 0.0450411 -0.014512)
(-0.110508 0.221618 -0.0817555)
(-0.274261 -0.12833 -0.0649236)
(-0.444451 0.177108 -0.107417)
(0.142537 0.101201 0.42622)
(-0.0183589 -0.0303087 0.0263631)
(0.0882219 0.156355 0.219669)
(-0.0818962 -0.085328 0.138903)
(0.000340687 0.000255739 -9.71373e-05)
(-0.00684365 0.115753 0.0874217)
(0.000961761 -0.100324 -0.0429912)
(-0.0568882 0.167888 -0.0477672)
(0.00102089 -0.00165419 -0.00309327)
(-0.0235073 0.0165194 -0.00711546)
(0.509272 0.400512 -0.0370381)
(-0.0233848 -0.00542458 -0.0227908)
(-0.361688 -0.582574 0.392376)
(-0.2286 0.164722 -0.0198343)
(0.0501521 -0.0176365 0.543328)
(-0.232416 0.0472261 -0.106635)
(0.246888 0.0223601 -0.134738)
(-0.141487 -0.0304966 -0.149832)
(0.24077 -0.40188 0.260485)
(-0.250482 -0.187177 -0.0780962)
(-0.180393 -0.0198627 0.184911)
(0.0726018 -0.261717 -0.162265)
(0.116833 0.129133 -0.103339)
(0.22594 0.449059 0.221629)
(0.0444254 -0.00828576 -0.0371835)
(0.0283832 0.0818802 -0.0609994)
(0.235428 -0.348803 0.0429666)
(-0.157801 0.261129 -0.0396267)
(0.00397226 0.0225302 0.03522)
(0.0325354 0.00854392 -0.00921381)
(0.0136887 -0.101969 0.155581)
(-0.163784 0.151081 -0.0494125)
(-0.00829644 -0.00945514 -0.00705814)
(-0.394559 0.226743 0.209669)
(0.345207 -0.181414 0.0243208)
(-0.0826788 -0.0992889 0.02353)
(0.221733 0.271015 0.027945)
(0.0104766 -0.0181462 0.0229385)
(-0.135328 0.0583795 0.0723495)
(0.54767 -0.506729 0.160827)
(-0.284409 0.216917 0.0823947)
(0.0257545 0.0315306 0.0177174)
(-0.0251715 -0.0435784 -0.0178125)
(-0.328979 0.398741 -0.0504678)
(-0.000777993 0.0484984 -0.012435)
(-0.32519 0.525156 -0.177544)
(-0.351476 0.236069 -0.0334513)
(-0.535649 0.0152074 0.415386)
(-0.0138406 -0.024126 -0.0289498)
(-0.470869 0.0688388 -0.148728)
(0.0194014 -0.023792 0.025318)
(0.0242684 0.0919368 0.340798)
(0.060575 -0.069314 0.159008)
(-0.00311978 -0.00352777 0.00195603)
(-0.000830908 0.00363217 0.00336649)
(0.0642768 0.0702502 -0.0172879)
(0.104691 -0.0659896 0.10654)
(-0.00411862 0.00296979 0.00138783)
(-0.243404 -0.191539 0.0865474)
(-0.0106144 0.0126886 -0.00214349)
(-0.0403778 -0.0483683 0.0211103)
(0.416963 0.544299 0.0103215)
(-0.587951 0.349449 0.177792)
(-0.0805884 -0.0647901 -0.0168973)
(-0.00937078 0.0125203 0.0111425)
(0.00322296 0.00414189 0.00447628)
(0.0291662 0.12275 0.0392219)
(0.242791 -0.145505 -0.142962)
(-0.00133486 -0.00232146 -0.00195717)
(-0.047919 -0.239212 -0.281059)
(0.0105888 -0.0313609 -0.0131742)
(-0.00886695 0.00777568 -0.00833329)
(-0.00826561 0.0210352 -0.0170453)
(0.00329012 -0.00756537 -0.00287993)
(-0.011074 -0.0124732 0.0145357)
(0.0358949 0.0539852 -0.0160255)
(-0.791597 0.151519 0.489935)
(-0.0855685 -0.182027 -0.0601732)
(-0.622387 1.23015 0.000857139)
(0.0983746 -0.00445377 -0.0266123)
(-0.149041 0.0357141 0.105859)
(-0.0353462 0.0582308 -0.00769891)
(-0.0710029 -0.0641105 0.0015728)
(-0.231908 0.0951525 -0.0230016)
(-0.128256 -0.22513 -0.160262)
(-0.00061846 -0.0257331 0.0136147)
(-0.0218767 -0.0309296 -0.0234404)
(-0.152025 -0.0185286 -0.014965)
(0.0248139 -0.0266696 -0.194462)
(0.228165 0.230421 0.0367418)
(0.0374226 0.201172 -0.120828)
(-0.00597173 -0.00766115 0.0088031)
(-0.585146 0.406936 0.196548)
(0.0486307 0.202633 -0.0982112)
(-0.00728315 0.0115495 0.0110088)
(0.00650651 -0.0086562 -0.00794936)
(-0.0106807 -0.00890782 -0.00670984)
(-0.253529 -0.00124333 -0.181116)
(0.21652 -0.247691 0.0915071)
(-0.00129045 0.00628889 -0.00239521)
(-0.0258653 0.0195871 0.0101057)
(0.0335258 -0.126275 -0.00902232)
(-0.121928 -0.0023019 -0.0504006)
(-0.217209 -0.342663 0.123107)
(0.218361 0.395325 -0.105059)
(0.0424974 -0.0148619 -0.0273816)
(0.00775699 0.669264 0.347782)
(-0.581857 -0.0233144 -0.180425)
(0.0544496 -0.207368 0.136368)
(0.268553 0.423384 0.0235103)
(-0.242504 0.310088 0.129913)
(0.0464753 -0.0189595 0.0409564)
(0.121711 0.175191 -0.182385)
(-0.00791605 -0.0288973 -0.0440456)
(-0.112545 -0.210777 -0.0988959)
(-0.253441 -0.363575 0.219332)
(0.026669 -0.000362947 -0.00680169)
(-0.280895 -0.0898929 -0.207402)
(-0.091858 -0.0411038 -0.0445936)
(-0.0173767 -0.0672265 -0.0820579)
(0.0400515 -0.0708423 -0.0909308)
(-0.0515566 0.0534686 -0.0202788)
(0.00996075 0.00910868 0.00134483)
(0.0960777 -0.0271962 -0.084306)
(-0.159215 0.0573041 0.177179)
(0.0481497 -0.0653587 -0.0906308)
(0.0807268 -0.1057 -0.0417581)
(-0.077506 -0.0119743 0.0810453)
(-0.269311 0.269695 -0.109788)
(-0.00802944 0.102045 -0.0916015)
(-0.610416 0.119308 -0.164419)
(-0.503889 0.000307865 -0.200939)
(0.257444 -0.387023 0.322402)
(0.00928224 -0.0570568 0.0507796)
(-0.382486 0.912376 0.180707)
(0.00451267 0.0658446 -0.00925197)
(-0.0260199 0.0177614 -0.0267675)
(0.176627 -0.0242944 -0.0236193)
(-0.0404409 -0.0177578 0.0171189)
(-1.76852 0.417455 0.0147738)
(0.569884 -0.80002 -0.0112101)
(0.208984 0.145389 0.0267181)
(0.0213069 -0.0162831 0.0404799)
(0.0609261 0.0167849 -0.101254)
(-0.38218 -0.603131 0.311077)
(-0.0434905 -0.0245072 0.00895437)
(0.0618926 -0.0639873 -0.0315155)
(-0.230401 -0.128962 -0.251409)
(0.0799534 0.00614561 -0.0856128)
(-0.601584 0.628164 -0.0821873)
(-1.4627 0.912561 -0.000500014)
(0.0196232 -0.118828 0.0581216)
(-0.0353484 -0.11345 0.132416)
(-0.390079 0.375985 -0.0190332)
(0.0738786 0.0798994 0.00902698)
(0.0489066 0.0814886 0.0934934)
(-0.0852001 0.0540625 0.128983)
(0.201774 0.514123 0.101797)
(0.311362 0.412838 0.138503)
(0.35654 0.20247 0.249934)
(0.179581 0.633221 0.0645204)
(-0.165168 -0.0590517 -0.124031)
(0.0437916 0.00334491 -0.0150461)
(0.00102913 0.00155425 -0.00665196)
(-0.140287 0.549829 -0.010171)
(0.211426 -0.00343202 -0.158289)
(0.18603 0.624359 -0.561663)
(-0.0724032 -0.125513 0.154891)
(-0.0779182 -0.242707 0.30297)
(0.132448 -0.0606367 0.000414817)
(-0.00629067 0.125886 -0.026532)
(-0.620029 0.160943 0.0406693)
(0.226296 0.1478 0.0598191)
(0.26021 -0.231672 0.090485)
(0.543072 0.108698 0.291018)
(0.223795 0.274677 0.330497)
(-0.0304113 0.0189842 -0.0311641)
(0.240234 -0.258971 -0.208986)
(0.0239654 0.00180536 0.0680804)
(0.0859412 -0.0399025 -0.0370781)
(0.0697741 -0.265949 -0.201808)
(-0.026675 0.8615 0.0804297)
(-0.282517 -0.286498 0.120047)
(-0.274566 -0.0386786 0.252813)
(0.00412987 0.00365653 -0.0588137)
(0.333754 -0.221357 -0.0245904)
(0.694973 0.298265 -0.106559)
(-0.00723073 0.0137036 0.0038501)
(-0.678716 0.583157 0.0978818)
(-0.14911 0.546524 0.181272)
(-0.271687 0.113935 -0.18649)
(0.0433315 1.07249 0.130473)
(0.0284928 0.305068 0.00254334)
(-0.750851 -0.615855 -0.313115)
(-0.0992716 0.00967048 -0.102011)
(0.0959864 -0.130102 -0.125746)
(-0.0388291 0.0144539 0.139433)
(-0.0130948 -0.00583977 0.00391404)
(-0.0808659 0.0524353 0.0555097)
(0.326976 0.178999 0.114957)
(-0.150053 -0.241926 0.111994)
(0.0649496 -0.0248723 0.0326051)
(-1.62813 0.759612 -0.0291415)
(0.0461675 0.0403246 -0.0861971)
(-0.185177 0.0655586 0.0316996)
(-0.0166993 -0.0884513 0.180843)
(0.190154 0.0706089 -0.0373944)
(-0.000711649 0.000183576 -0.000854267)
(0.0276787 0.0202966 -0.115279)
(0.0125967 -0.0106838 -0.0126487)
(0.0329975 -0.119157 0.112398)
(0.305169 -0.425628 -0.341276)
(0.228051 0.0618067 0.115371)
(-0.0822683 -0.126545 0.0831188)
(0.260889 0.068255 0.0432241)
(0.12605 -1.19063 0.364269)
(0.0499446 -0.23996 0.0370354)
(0.28486 -0.282934 0.110516)
(0.294328 0.0807247 -0.0681233)
(-0.0773238 0.042631 -0.0439103)
(-0.0249717 -0.0151257 -0.0211172)
(0.00584904 -0.000443322 0.00595683)
(0.0806676 -0.0467725 0.0244281)
(-0.00426739 -0.00523814 -0.00397167)
(-0.700371 0.516985 -0.0873694)
(0.603377 0.517109 0.104295)
(-0.161912 0.0449904 0.194739)
(0.00558559 0.0062721 0.00638743)
(0.0336483 0.103998 0.0291355)
(0.0138631 0.0824018 0.0809708)
(0.0511044 0.642312 -0.756972)
(0.155312 -0.471547 0.273457)
(0.00379236 -0.0426782 -0.0417853)
(0.0276503 -0.0117272 0.0147383)
(-0.597399 0.0626896 -0.209449)
(-0.04532 0.035405 0.0678701)
(0.110144 0.14416 0.0437237)
(0.000556693 6.34995e-05 -0.000384243)
(-0.532949 -0.197411 0.127143)
(1.12199 0.0126645 0.0652914)
(-0.183872 0.40349 -0.214765)
(-0.242361 -0.133015 -0.0927896)
(0.11639 0.00953968 3.87269e-06)
(-0.441649 0.302047 0.015915)
(0.0104213 -0.00499253 0.00801009)
(-0.408115 0.410338 -0.0786968)
(0.11001 0.067252 -0.108156)
(0.0591286 0.0410933 0.0529115)
(-0.531001 -0.0185263 -0.744533)
(-0.0112695 0.00772178 0.0115076)
(-0.480353 0.089859 0.241187)
(0.216588 -0.195023 -0.0604421)
(-0.395506 -0.136212 0.11701)
(0.521778 0.0970644 -0.0836637)
(-0.0272314 -0.120771 -0.114058)
(0.155322 -0.0629546 -0.193762)
(0.245623 1.27756 -0.132121)
(0.0317303 0.0842806 0.0412298)
(-0.0148083 -0.00735825 0.0133267)
(0.0652 -0.00523558 -0.018137)
(-0.188746 -0.0234445 -0.146332)
(-0.481391 0.261 -0.112082)
(-0.255314 -0.217504 -0.106022)
(-0.411576 -0.0917089 -0.100365)
(0.612035 -0.914242 -0.455051)
(-0.0113665 -0.0114667 -0.00992953)
(0.668844 0.658764 -0.0319911)
(0.275244 -0.192189 -0.47617)
(-0.151211 -0.0953077 -0.10496)
(-0.006585 0.00870347 0.0153976)
(-0.20252 -0.361864 -0.21649)
(0.577786 -0.305685 0.355215)
(-0.160186 0.908813 0.142008)
(-0.0854949 0.0804044 -0.0884185)
(-0.056984 -0.0362759 -0.098283)
(0.602592 -0.533679 0.304072)
(-0.931824 -0.61428 0.103849)
(0.0725997 0.104457 -0.0621531)
(0.362038 1.14465 -0.119691)
(0.209586 -0.213421 0.10601)
(0.217209 0.10288 -0.185428)
(-0.0461958 0.188769 0.239156)
(0.0207426 -0.0187804 -0.0467009)
(-0.113419 -0.00931696 0.138834)
(-0.0835009 0.0107982 -0.0383645)
(0.210243 0.107821 -0.0891869)
(-0.327698 0.290733 0.160916)
(0.214524 -0.372702 -0.292148)
(0.019699 -0.00180405 -0.0120172)
(-0.599946 -0.516369 0.190658)
(-0.00666025 0.0284767 0.0127448)
(0.0110915 0.00126131 -0.0133059)
(0.502019 -0.602702 -0.943004)
(-0.0805452 -0.0628894 -0.11099)
(0.22709 0.38931 -0.192576)
(-0.289994 0.210308 0.131103)
(-0.171232 -0.0052466 0.0414948)
(0.0871573 0.166607 -0.102631)
(-0.209296 -0.197784 -0.14133)
(0.148002 -0.151679 -0.124292)
(0.0446344 -0.025059 -0.100753)
(-0.0706564 -0.311654 0.0790483)
(0.063973 0.0560935 0.0189564)
(0.463513 0.39074 -0.0126374)
(0.0760832 -0.0158296 0.077067)
(-0.041769 -0.166066 0.0911133)
(-0.102308 -0.117023 -0.044846)
(-1.10671 0.372606 0.370335)
(-0.106334 0.0196233 -0.0498317)
(-0.182403 -0.122238 -0.141257)
(-0.11309 0.211468 -0.144423)
(0.0321582 0.0742233 0.00128279)
(0.459942 0.263465 -0.146373)
(-0.075463 0.0868839 -0.0843608)
(-0.0129675 0.0654281 -0.0368994)
(0.273861 0.268435 -0.0792838)
(-0.176233 0.096702 -0.0434997)
(0.102572 0.112347 0.042527)
(0.735184 -0.77625 0.0415194)
(0.0446251 0.045197 -0.131232)
(-0.0297639 -0.117289 0.1166)
(0.015444 0.0567879 -0.0531243)
(0.49358 0.444373 0.291102)
(0.181029 0.00891943 0.0232472)
(0.00928196 -0.0096981 0.0280515)
(-0.020548 0.75387 0.594869)
(0.0628343 0.12369 0.0581604)
(0.893421 0.663912 -0.000992934)
(-0.337993 -0.252321 0.0468375)
(-0.0806527 0.0405857 -0.225649)
(-0.0811318 -0.0864669 -0.0663454)
(-0.156906 0.122537 -0.111291)
(0.348242 -0.0984759 -0.184119)
(-0.405073 -0.321556 0.270288)
(-0.192694 -0.0885944 -0.175827)
(-0.2324 0.0355223 0.0195685)
(0.146067 0.0959738 -0.102482)
(0.630133 0.552077 -0.0480059)
(0.00860684 -0.24086 -0.115297)
(-0.222932 0.285039 -0.0422581)
(-0.099268 0.152426 -0.144204)
(0.0204016 0.0220453 0.041588)
(-0.0408474 -0.0817672 0.047023)
(-0.0314394 -0.0208883 0.044325)
(-0.00644231 -0.00176677 0.00737751)
(-0.125179 0.101927 -0.0332108)
(-0.03219 0.0234633 0.00718985)
(-0.0127268 -0.0525455 0.0640363)
(0.185704 0.227811 0.0184253)
(-1.20261 0.0532184 0.350026)
(-0.491109 0.510955 -0.0260316)
(0.18418 0.146723 -0.120855)
(-0.258082 0.0265862 0.20532)
(-0.592972 -0.0849347 0.249331)
(0.0116044 0.0104774 0.0119483)
(0.0737792 0.0688998 -0.0917168)
(0.219829 0.000713589 0.28871)
(0.750994 0.841811 0.017346)
(-0.0400136 0.23947 -0.108758)
(0.901533 0.320387 0.101931)
(-0.0359454 0.0333736 -0.0480146)
(0.131867 -0.224919 -0.0275709)
(-0.241557 0.460086 -0.062208)
(0.363734 -0.188494 -0.0614726)
(0.022753 0.00692346 -0.00317269)
(-0.351765 -0.520265 -0.626433)
(0.00745189 0.127591 -0.0670158)
(-0.342061 0.170404 -0.165758)
(0.0274327 0.241365 0.0160902)
(-0.101483 0.0793282 -0.0568339)
(0.239134 0.357251 -0.982311)
(-0.0957576 -0.101197 0.129028)
(-0.13588 0.0736831 0.153984)
(-0.313701 -0.0741447 0.00288116)
(-0.206948 -0.54584 0.0388395)
(0.738145 -0.0237394 -0.556999)
(0.107239 -0.012694 0.0587285)
(0.0705584 -0.106404 -0.00476194)
(0.235373 -0.491207 -0.0450489)
(-1.10659 0.768509 0.381792)
(-0.096467 0.106773 0.044653)
(-0.474089 0.399963 0.138805)
(-0.0305025 -0.021221 0.0684604)
(-0.405572 -0.163834 -0.364342)
(-1.97882 -0.423341 -0.0267672)
(0.00821188 -0.018213 -0.0349396)
(0.466448 0.0770399 -0.225251)
(1.79583 -0.413944 -0.0869289)
(0.702421 0.223394 0.180899)
(0.063559 -0.254637 0.251529)
(-0.493723 -0.328982 0.509432)
(0.00324117 -0.0102604 0.0356716)
(-0.113716 -0.255398 -0.300563)
(0.0697389 -0.0891097 0.164843)
(-0.0155147 0.0267422 -0.0240153)
(0.523625 -0.961859 0.471186)
(0.258105 -0.0180949 0.270024)
(-0.273023 0.242552 0.0460212)
(0.050131 -0.0867254 0.104341)
(-0.0755692 -0.665868 0.71064)
(0.18671 0.0166185 0.173866)
(-0.993782 0.280421 -0.0695321)
(0.109251 -0.123052 0.0654708)
(-0.349676 -0.273861 0.134651)
(0.00830137 -0.0027946 0.00730651)
(0.195684 -0.156196 0.216395)
(-0.239422 -0.514717 0.0510004)
(0.173663 0.112915 -0.138512)
(-0.657854 -0.00449373 0.251276)
(-0.104553 0.0959088 0.138057)
(0.124715 0.0174989 0.23607)
(0.160298 0.144554 0.481667)
(0.307025 1.07197 -0.647249)
(-0.0893908 -0.0875232 -0.0178383)
(0.279541 0.0752612 -0.132194)
(-0.0522561 -0.0244439 -0.0151902)
(0.0976532 0.950895 0.728941)
(0.53893 -0.667746 -0.401584)
(-0.245575 0.196195 -0.0471838)
(-0.163944 -0.108924 -0.0274094)
(0.943511 0.526579 -0.166091)
(-0.140737 -0.0341061 0.174504)
(-0.145239 0.525574 0.0561242)
(-0.313461 0.465924 -0.363796)
(-0.213967 0.207385 -0.0218917)
(0.570654 -0.309181 -0.52842)
(0.0137663 -0.611589 0.0509656)
(0.112519 -0.0869719 0.0893013)
(-0.392911 0.308652 0.0510283)
(-0.23109 -0.245276 0.0484369)
(0.251096 0.249638 -0.145912)
(0.0358152 0.262521 0.0421272)
(-0.0754737 0.401063 0.158547)
(-0.047764 -0.0313409 -0.0743047)
(-0.228184 -0.258799 0.113078)
(-0.00790368 -0.0807812 -0.134746)
(-0.00963209 0.0118293 -0.0364659)
(0.152001 -0.10405 -0.302892)
(-0.813594 0.630917 -0.514888)
(-0.136276 0.0295726 0.0626518)
(0.23288 -0.0768563 0.137043)
(0.0357135 -0.284262 -0.247258)
(-0.00403694 0.00358957 0.0046839)
(-0.0169324 -0.0375766 0.024209)
(-0.408766 0.474295 0.213003)
(0.247828 0.104602 -0.272704)
(0.583186 -0.454677 -0.237683)
(-0.377548 -0.151101 0.316381)
(0.308978 -0.170258 0.316812)
(0.106348 0.109082 0.0340332)
(-0.0300269 -0.025457 0.0107848)
(0.256579 -0.130235 0.171838)
(-0.270009 -0.109001 -0.357693)
(-0.0146423 0.000909661 0.00827247)
(0.139654 -0.193544 -0.160295)
(-0.683168 -0.276325 0.0327595)
(0.298597 0.862917 -0.192161)
(0.0947693 0.0458315 -0.120916)
(0.209755 -0.0656996 -0.0650401)
(-0.0561673 -0.1007 0.0989531)
(-0.55588 0.195372 0.191328)
(0.272194 -0.415953 -0.0745832)
(0.0764859 0.195662 0.229548)
(0.0322348 -0.0181039 -0.0627317)
(-0.544493 0.532495 -0.331674)
(1.18627 -0.896639 0.0909671)
(-0.471752 -0.259625 -0.186671)
(0.35446 0.204559 0.319669)
(0.0880803 -0.101017 -0.117196)
(0.204451 -0.212347 -0.27199)
(-0.459018 0.316926 -0.0440261)
(-0.0302487 0.111347 -0.0503257)
(-0.361806 -0.0850979 0.0005696)
(0.301693 0.223727 0.0416879)
(-0.0561696 -0.407376 -0.460987)
(0.0289399 -0.173147 -0.224552)
(-0.166286 0.0580779 0.211957)
(-0.0603491 0.050295 -0.00177289)
(0.170702 -0.0227061 -0.20536)
(-0.00503624 -0.0103788 -0.00116071)
(0.364552 0.490817 -0.0362785)
(-0.292749 0.260907 -0.00861384)
(0.001183 -0.00107258 -0.00161894)
(-0.00963119 0.0851726 0.105885)
(-0.0921681 -0.0743274 0.0687321)
(0.0650624 -0.115953 0.122144)
(0.611614 -1.1231 -0.368156)
(-0.00985908 -0.00688412 0.0311585)
(-0.00978626 0.334006 -0.0409196)
(0.169726 0.134006 0.0926674)
(-0.176243 0.0975542 0.182524)
(-0.0125701 -0.0029756 0.00850031)
(0.00579815 0.00200213 0.0112168)
(-0.233399 -0.438563 -0.411645)
(-0.0629305 -0.108332 -0.119873)
(-0.0190872 -0.0287136 -0.0364602)
(0.0152378 0.129514 -0.147418)
(0.0910995 0.117585 0.09256)
(0.107121 0.0369209 0.111802)
(-0.204932 0.263161 0.301913)
(0.0894482 0.0655164 0.105654)
(-0.15594 0.000595984 -0.00415882)
(0.150594 0.389965 -0.0854397)
(-0.174886 0.0457526 0.103796)
(0.32573 -0.267487 -0.232357)
(-1.22906 -0.248284 -0.160775)
(0.00721441 0.187136 0.0981914)
(0.0673497 0.0636168 -0.0190767)
(0.147558 0.262286 -0.127893)
(-0.126263 0.108504 0.00940923)
(0.449847 0.187766 0.0142649)
(-0.0781011 0.184988 -0.0303214)
(-0.11339 -0.222784 0.0165104)
(0.0250059 -0.0209844 0.0260553)
(0.0103396 -0.0280993 0.026109)
(-1.16136 0.878504 0.107803)
(0.0971841 0.0922041 -0.0123257)
(-0.00738887 0.0103676 -0.0271894)
(1.08618 0.608867 -0.0503873)
(0.313807 -0.344043 0.149754)
(-0.423157 0.482383 0.0877947)
(0.0020419 -0.0705631 0.0266794)
(0.618018 -0.267104 0.52843)
(-0.0293281 -0.0375592 -0.0627857)
(-0.180437 0.00505097 -0.0208846)
(-0.870853 -0.776892 0.0418424)
(0.0362461 0.100745 0.0169726)
(-0.111849 0.0228566 -0.128616)
(-0.166132 0.0193658 -0.121427)
(0.37872 0.414678 0.393166)
(0.0476627 0.05484 0.191646)
(-0.00213163 0.0124093 0.00352903)
(0.00769926 0.102726 0.000983223)
(0.0284603 0.0513529 -0.00342066)
(0.259841 0.138392 0.245893)
(0.00702806 0.162355 -0.0239278)
(0.421935 0.874658 -0.0998961)
(-0.0497628 0.43044 -0.111365)
(0.0216308 -0.162363 -0.331913)
(0.0578845 0.124192 0.0741052)
(-0.121833 0.265277 -0.456737)
(-1.37954 0.57979 -0.195281)
(0.40904 0.325662 0.253673)
(0.10378 -0.0364709 0.135441)
(-0.341821 0.577525 0.00894131)
(-0.0381018 -0.0238651 -0.0145445)
(0.188441 -0.195944 -0.28576)
(-0.0293742 0.346617 -0.208641)
(-0.184866 0.68993 0.203221)
(0.0250959 -0.00536956 0.0383436)
(-0.0281517 0.0252123 -0.221731)
(0.499477 0.0400427 -0.0290347)
(0.252863 -0.0733481 -0.0497632)
(-0.0439384 -0.0637529 -0.0405103)
(0.206621 0.359276 -0.12766)
(0.214941 -0.0967458 -0.103146)
(-0.00693252 0.00348648 -0.00569965)
(0.0240161 0.196427 -0.122343)
(-0.31265 0.196966 -0.125203)
(-0.00631249 -0.00903491 -0.0210658)
(0.173482 0.747361 -0.0068175)
(-0.0276009 0.678317 0.0995523)
(-0.0426786 -0.344998 0.277304)
(-0.0207301 -0.00915982 -0.0205285)
(-0.0561947 -0.115206 -0.123103)
(-0.00161809 0.0416969 -0.0730339)
(0.497323 -0.694524 0.447392)
(0.0179907 0.0713417 0.0222306)
(-0.0562613 -0.142904 0.205307)
(0.0588592 -0.00848954 0.0204184)
(-0.0508186 0.0498301 -0.0510421)
(-0.0554552 -0.0986579 0.0685775)
(-0.000816268 -0.00121828 -0.00137853)
(0.128361 0.132842 -0.0161161)
(-0.213157 0.244969 0.221084)
(-0.0431732 -0.0284096 -0.218071)
(-0.304412 0.185766 -0.0477674)
(-0.846506 -0.426174 0.140207)
(0.0124384 -0.0200917 0.0199903)
(-0.00082069 0.0149994 0.0131467)
(-0.0367025 -0.139904 0.214823)
(0.0978785 0.0136897 -0.00127132)
(-0.0531289 -0.00621762 0.209975)
(-0.210517 0.244798 -0.149554)
(-0.076709 -0.0719996 -0.227596)
(0.720814 0.0487758 -0.285043)
(-0.632396 0.357985 -0.0420917)
(0.165887 0.239319 -0.0842921)
(-0.467019 -0.226622 -0.0314865)
(-0.181371 -0.037679 0.0678571)
(0.407893 -0.225994 0.266112)
(0.143178 0.265257 -0.323623)
(0.23634 -0.0855903 -0.198405)
(-0.0196799 0.13659 0.133034)
(-0.308581 0.352626 0.337824)
(0.000909936 -0.0267541 -0.0167998)
(-0.834033 0.432842 -0.105706)
(-0.137133 0.00589058 0.147436)
(-0.000239289 -0.010953 -0.0147331)
(0.398228 -0.214899 -0.298422)
(-0.043038 -0.0354383 -0.0575316)
(-0.408941 -0.319501 0.113716)
(0.655716 0.84547 0.191337)
(0.0682677 -0.354993 0.338029)
(-0.00933922 0.381523 -0.0657725)
(0.0438098 -0.0558817 0.217192)
(0.0170731 0.0595638 0.0239455)
(-0.58902 0.028428 0.0879332)
(0.130658 0.105686 0.141136)
(0.121225 -0.0446809 -0.011654)
(-0.464923 0.293892 0.170199)
(-0.0277103 0.0899244 -0.0636753)
(-0.910708 0.0395998 -0.104882)
(-0.00539844 -0.026308 -0.0274619)
(0.288215 -0.226443 -0.190771)
(0.746542 0.440875 -0.687313)
(0.0476187 0.0575177 0.0377075)
(-0.300138 -0.160061 -0.276302)
(-0.376923 0.0820134 -0.0879118)
(-1.77609 -0.266276 -0.257226)
(-0.0729749 -0.0255394 0.103831)
(-0.153019 -0.0507741 0.1062)
(0.278672 0.494581 -0.050305)
(-0.0157643 -0.059127 0.0113663)
(-0.0705446 -0.0726044 0.0124155)
(0.0757753 0.344905 0.0288737)
(-0.203589 -0.399456 -0.433991)
(-0.238198 0.489017 -0.0265533)
(-0.0208531 0.0431325 0.658314)
(-0.219155 -0.730851 -0.704192)
(-0.0757213 0.0897942 -0.0585222)
(0.430355 0.616634 -0.153379)
(-0.401587 -0.323953 -0.281189)
(-0.0241257 0.0417823 0.0485227)
(0.299502 -0.406446 -0.301845)
(-0.426033 0.553192 -0.167839)
(0.270612 1.22374 0.294435)
(0.0176177 0.0629358 0.151263)
(0.00378546 0.0386918 0.0689751)
(1.24641 -0.915597 -0.796652)
(0.0245186 0.107347 0.123376)
(-0.0835205 -0.00092223 0.018315)
(-0.277574 -0.206629 -0.140048)
(0.451152 0.550434 0.0782787)
(0.13513 -0.177808 -0.0499411)
(-0.0301156 0.0362326 -0.00488684)
(0.603321 -0.0205246 -0.298223)
(-0.176585 -0.588058 0.144904)
(-0.0314279 -0.160928 0.26836)
(-0.136459 0.431238 0.121809)
(-0.640462 -0.230581 0.442849)
(0.263773 0.523882 -0.0288666)
(0.0982187 0.185899 0.134106)
(-0.144314 0.188933 -0.14105)
(0.0313387 0.0425225 0.0149223)
(-0.0174358 0.168133 0.0831569)
(-0.387813 0.270146 0.118221)
(0.167809 -0.31183 0.0705985)
(-0.322615 0.0448261 -0.113828)
(0.0443233 0.0638606 -0.0787987)
(-0.114249 -0.116738 0.132913)
(0.0840945 -0.0807063 0.237199)
(0.0441566 -0.0180429 -0.00640539)
(0.201511 0.338645 -0.105518)
(0.331592 0.0579882 0.106286)
(-0.461203 -0.281665 0.142943)
(-0.00116373 0.00270792 -0.022926)
(-0.351254 0.0635887 -0.154066)
(-0.0526115 -0.0295787 -0.0759167)
(-0.513779 0.777021 0.131092)
(0.551164 0.124029 0.373235)
(-0.757545 -1.00437 0.181391)
(-0.109788 0.176772 0.0182784)
(-0.109434 -0.102058 -0.0789274)
(0.0330261 -0.0290825 0.0193179)
(-0.234975 0.463556 -0.174095)
(0.0289931 -0.0716262 -0.0840839)
(-0.263879 -0.498653 -0.0831331)
(0.0971358 -0.173629 -0.0846656)
(0.0573824 0.129823 0.100473)
(0.856225 0.776732 0.0678598)
(0.00117527 0.0199804 -0.0327884)
(0.0991601 -0.205354 -0.0953826)
(-0.187412 0.324691 0.285397)
(-0.483388 0.216776 -0.0895518)
(0.510864 -0.191586 -0.33613)
(-0.265209 -0.138219 0.0116877)
(0.00139845 -0.00156101 -0.001711)
(0.35778 0.0961062 -0.343712)
(0.298074 0.0437421 -0.0808663)
(0.189782 -0.0135985 0.224935)
(-0.00866454 -0.00703975 0.00528898)
(0.306644 -0.308788 -0.266757)
(0.250895 -0.174226 -0.660677)
(0.174206 -0.417854 -0.127845)
(-0.292182 0.313108 0.0802667)
(0.0713839 0.0961034 -0.116419)
(-0.119974 -0.0422736 0.0818729)
(0.00248413 0.000439475 -0.00384532)
(0.493141 -0.132137 0.16876)
(0.405212 -0.366292 -0.913492)
(0.0684508 0.0539584 0.138383)
(0.232377 0.223145 0.119291)
(0.0852013 -0.0803604 0.0454068)
(-0.005195 0.00714704 0.0960745)
(0.0963921 0.107067 0.0586565)
(0.0150733 -0.0953518 0.0974641)
(0.533874 -0.855374 0.587021)
(-0.285547 0.520834 0.503533)
(-0.292013 0.0389707 -0.0246484)
(0.111426 -0.0930486 0.0680518)
(-0.16917 -0.272971 0.0502082)
(-0.0330784 0.0283764 -0.0472838)
(0.191958 -0.116282 0.141359)
(0.344797 0.0911049 -0.0229203)
(0.0696314 -0.0751989 0.053102)
(-0.327019 -0.358818 0.0625482)
(0.20955 0.604024 -0.0730142)
(0.0114352 0.0157172 -0.0159565)
(-0.134104 -0.0880195 0.193324)
(0.161128 0.121102 0.14663)
(-0.0787015 0.105215 0.0469542)
(0.187801 -0.0681103 -0.303778)
(1.33823 0.854354 -0.000616008)
(-0.0499079 -0.458388 -0.129408)
(-0.045783 0.0445079 0.0198927)
(-0.379949 0.491509 -0.175668)
(-0.161749 -0.212726 -0.13223)
(-0.43244 0.0195414 0.217058)
(-0.141038 -0.075116 -0.0578817)
(0.00985797 0.00625689 -0.00771518)
(-0.0500573 -0.57729 0.314922)
(0.0534864 0.0722413 0.0678666)
(0.0200319 -0.00849577 -0.0887694)
(-0.0142785 0.00627671 -0.0152573)
(-0.0162049 0.087363 -0.219041)
(-0.0370312 -0.00145091 0.031807)
(-0.00108997 -0.00557771 -0.00438273)
(-0.151672 -0.220622 -0.382349)
(-0.260898 0.156376 -0.0141919)
(-0.0049416 0.0199155 0.0165909)
(0.317027 -0.351904 0.11301)
(-0.216201 -0.0295153 0.239081)
(-0.0633574 -0.218869 0.198093)
(-0.66732 1.65878 -0.100703)
(0.0888506 -0.0664937 -0.0361521)
(-0.668106 -0.048037 0.122257)
(-0.0928258 -0.0332583 0.130278)
(0.0169186 0.0718939 -0.0224488)
(-0.00267299 0.0421511 0.0539062)
(0.21947 -0.251069 0.197221)
(-1.14372 0.108492 -0.606594)
(0.0212996 -0.0117458 -0.140085)
(-0.13775 0.0351594 0.18499)
(-0.290284 0.402122 -0.059915)
(-0.138203 0.443482 -0.49915)
(-0.246098 -0.0858592 -0.0919712)
(0.0190074 -0.101 0.0227306)
(-0.368617 -0.191736 0.0554847)
(0.501968 -0.329007 -0.654353)
(-0.114466 0.0796058 0.107316)
(-0.434955 -0.0699196 -0.0555358)
(-0.326825 -0.782363 -0.100785)
(-0.680919 -0.382547 0.178953)
(-0.894452 0.950513 -1.07039)
(0.00631261 -0.0714951 -0.234789)
(-0.0768059 0.113826 0.191693)
(0.00397451 -0.0197623 0.00905997)
(0.0129111 0.0495733 0.00638092)
(-0.324207 0.0349156 -0.134147)
(0.660431 0.619294 -0.220682)
(-0.0264166 0.0220168 -0.00630283)
(0.000319759 -0.00201475 0.005015)
(-0.004492 -0.00444093 -0.00809094)
(1.30841e-05 -0.178601 0.0209932)
(0.28781 0.163142 -0.210807)
(0.121533 0.015955 -0.0198177)
(0.375353 0.284142 -0.115941)
(-0.66797 0.323021 -0.161311)
(-0.0246069 0.0208255 -0.0215868)
(-0.046058 0.291133 0.547003)
(0.108641 0.252181 0.0794336)
(-0.00732435 0.0105297 -0.00560212)
(0.77275 0.489903 0.173049)
(0.248941 -0.20565 0.17663)
(-0.0413902 0.0590781 -0.0380948)
(-0.0180619 0.0155574 0.0256139)
(-0.00311026 -0.149474 -0.0345564)
(1.16104 2.0251 0.173242)
(-0.531332 0.233095 0.298594)
(-0.660577 0.425422 0.0375509)
(0.0454528 -0.0301185 0.0365023)
(0.068312 -0.0593515 0.00518963)
(0.09121 -0.82686 0.228494)
(0.289317 -0.245683 -0.435892)
(-0.68354 -0.200191 -0.300086)
(-0.0430436 0.0176288 -0.0287122)
(-0.0202552 -0.00946293 -0.0139618)
(-0.0145206 0.0631962 0.0334104)
(0.0324597 0.0452694 0.0230051)
(-0.0335166 0.108878 -0.132604)
(-0.0203153 -0.006727 -0.00340734)
(0.00107905 0.0363608 0.0101698)
(-0.948291 0.453218 0.0323016)
(0.191049 -0.20716 -0.0795598)
(0.0891657 0.067522 -0.033967)
(-0.216917 0.31878 0.191184)
(-1.4048 0.351447 0.0111272)
(-0.762774 -0.0875713 0.344335)
(0.153814 -0.0478881 -0.0258471)
(-0.0344871 0.161965 0.157644)
(0.0451804 0.0932216 -0.0325841)
(-0.147806 -0.374466 0.0723049)